68
   time=  149.000 (fs)  Energy= -7217.85361 (Hartree) Temperature= 450.000 (Given Temp.=  450.000) Cell_Vectors= 11.55570  0.00000  0.00000 -5.77848 10.00086  0.00000  0.00000  0.00000 23.00000
  Ag    0.00000  0.00000  0.00000   0.00058  0.00001 -0.00605  0.00000  0.00000  0.00000   0.01497  0.00000  0.00000  0.00000
  Ag    2.88924  0.00000  0.00000   0.00023  0.00139 -0.00695  0.00000  0.00000  0.00000   0.02084  0.00000  0.00000  0.00000
  Ag    5.77848  0.00000  0.00000  -0.00019  0.00075 -0.00691  0.00000  0.00000  0.00000   0.01688  0.00000  0.00000  0.00000
  Ag    8.66771  0.00000  0.00000  -0.00060  0.00027 -0.00586  0.00000  0.00000  0.00000   0.00931  0.00000  0.00000  0.00000
  Ag   -1.44462  2.50215  0.00000   0.00005  0.00026 -0.00539  0.00000  0.00000  0.00000   0.02111  0.00000  0.00000  0.00000
  Ag    1.44462  2.50215  0.00000   0.00068  0.00034 -0.00630  0.00000  0.00000  0.00000   0.01941  0.00000  0.00000  0.00000
  Ag    4.33386  2.50215  0.00000  -0.00019 -0.00014 -0.00727  0.00000  0.00000  0.00000   0.00948  0.00000  0.00000  0.00000
  Ag    7.22310  2.50215  0.00000  -0.00013 -0.00024 -0.00599  0.00000  0.00000  0.00000   0.01685  0.00000  0.00000  0.00000
  Ag   -2.88924  5.00431  0.00000   0.00036  0.00040 -0.00598  0.00000  0.00000  0.00000   0.01081  0.00000  0.00000  0.00000
  Ag    0.00000  5.00431  0.00000  -0.00070  0.00024 -0.00570  0.00000  0.00000  0.00000   0.01297  0.00000  0.00000  0.00000
  Ag    2.88924  5.00431  0.00000   0.00027 -0.00105 -0.00574  0.00000  0.00000  0.00000   0.01412  0.00000  0.00000  0.00000
  Ag    5.77848  5.00431  0.00000   0.00062 -0.00034 -0.00649  0.00000  0.00000  0.00000   0.01362  0.00000  0.00000  0.00000
  Ag   -4.33386  7.50646  0.00000   0.00036 -0.00093 -0.00564  0.00000  0.00000  0.00000   0.01267  0.00000  0.00000  0.00000
  Ag   -1.44462  7.50646  0.00000   0.00027 -0.00057 -0.00609  0.00000  0.00000  0.00000   0.01609  0.00000  0.00000  0.00000
  Ag    1.44462  7.50646  0.00000  -0.00082 -0.00029 -0.00581  0.00000  0.00000  0.00000   0.01634  0.00000  0.00000  0.00000
  Ag    4.33386  7.50646  0.00000   0.00005 -0.00117 -0.00554  0.00000  0.00000  0.00000   0.01112  0.00000  0.00000  0.00000
  Ag    1.44462  0.83405  2.35905  -0.00140  0.00067  0.00702  0.00000  0.00000  0.00000  -0.01034  0.00000  0.00000  0.00000
  Ag    4.33386  0.83405  2.35905  -0.00071  0.00104  0.00788  0.00000  0.00000  0.00000  -0.01907  0.00000  0.00000  0.00000
  Ag    7.22310  0.83405  2.35905   0.00045  0.00091  0.00676  0.00000  0.00000  0.00000  -0.01981  0.00000  0.00000  0.00000
  Ag   10.11233  0.83405  2.35905   0.00075  0.00101  0.00744  0.00000  0.00000  0.00000  -0.01626  0.00000  0.00000  0.00000
  Ag    0.00000  3.33621  2.35905  -0.00212 -0.00047  0.00660  0.00000  0.00000  0.00000  -0.01633  0.00000  0.00000  0.00000
  Ag    2.88924  3.33621  2.35905   0.00017 -0.00006  0.00598  0.00000  0.00000  0.00000  -0.01447  0.00000  0.00000  0.00000
  Ag    5.77848  3.33621  2.35905   0.00047 -0.00061  0.00662  0.00000  0.00000  0.00000  -0.02174  0.00000  0.00000  0.00000
  Ag    8.66771  3.33621  2.35905   0.00090  0.00050  0.00686  0.00000  0.00000  0.00000  -0.01784  0.00000  0.00000  0.00000
  Ag   -1.44462  5.83836  2.35905  -0.00030  0.00014  0.00741  0.00000  0.00000  0.00000  -0.01870  0.00000  0.00000  0.00000
  Ag    1.44462  5.83836  2.35905  -0.00026  0.00218  0.00500  0.00000  0.00000  0.00000  -0.01242  0.00000  0.00000  0.00000
  Ag    4.33386  5.83836  2.35905  -0.00069  0.00122  0.00689  0.00000  0.00000  0.00000  -0.00573  0.00000  0.00000  0.00000
  Ag    7.22310  5.83836  2.35905  -0.00013  0.00036  0.00683  0.00000  0.00000  0.00000  -0.01354  0.00000  0.00000  0.00000
  Ag   -2.88924  8.34051  2.35905   0.00035 -0.00199  0.00476  0.00000  0.00000  0.00000  -0.01684  0.00000  0.00000  0.00000
  Ag    0.00000  8.34051  2.35905   0.00004 -0.00229  0.00623  0.00000  0.00000  0.00000  -0.01948  0.00000  0.00000  0.00000
  Ag    2.88924  8.34051  2.35905  -0.00006 -0.00161  0.00675  0.00000  0.00000  0.00000  -0.01602  0.00000  0.00000  0.00000
  Ag    5.77848  8.34051  2.35905  -0.00056 -0.00056  0.00598  0.00000  0.00000  0.00000  -0.00933  0.00000  0.00000  0.00000
  Ag    0.02101  1.67145  4.83124  -0.00273 -0.00145 -0.00098  0.00000  0.00000  0.00000   0.02749  0.00000  0.00000  0.00000
  Ag    2.89455  1.68159  4.85705   0.00736  0.00858 -0.06515  0.00000  0.00000  0.00000   0.06208  0.00000  0.00000  0.00000
  Ag    5.75945  1.68691  4.85943   0.00394  0.00037 -0.00283  0.00000  0.00000  0.00000   0.00576  0.00000  0.00000  0.00000
  Ag    8.66624  1.65247  4.79020  -0.00002 -0.00011 -0.00017  0.00000  0.00000  0.00000   0.00100  0.00000  0.00000  0.00000
  Ag   -1.42919  4.16100  4.82017  -0.00062  0.00049 -0.00015  0.00000  0.00000  0.00000  -0.00764  0.00000  0.00000  0.00000
  Ag    1.44776  4.18245  4.78079  -0.00039  0.00134 -0.00194  0.00000  0.00000  0.00000  -0.01594  0.00000  0.00000  0.00000
  Ag    4.34174  4.16101  4.82127   0.00005  0.00121 -0.00058  0.00000  0.00000  0.00000   0.00781  0.00000  0.00000  0.00000
  Ag    7.22535  4.16166  4.80034  -0.00056  0.00024  0.00065  0.00000  0.00000  0.00000  -0.01726  0.00000  0.00000  0.00000
  Ag   -2.87952  6.64872  4.81371  -0.00031  0.00022  0.00071  0.00000  0.00000  0.00000  -0.00576  0.00000  0.00000  0.00000
  Ag    0.00957  6.65561  4.83252  -0.00020  0.00024 -0.00027  0.00000  0.00000  0.00000  -0.00081  0.00000  0.00000  0.00000
  Ag    2.88848  6.65493  4.81056   0.00091  0.00088 -0.00047  0.00000  0.00000  0.00000  -0.00820  0.00000  0.00000  0.00000
  Ag    5.78048  6.66106  4.82099  -0.00050 -0.00036 -0.00011  0.00000  0.00000  0.00000  -0.01347  0.00000  0.00000  0.00000
  Ag   -4.32149  9.10777  4.76161  -0.00108 -0.00207 -0.00174  0.00000  0.00000  0.00000  -0.00162  0.00000  0.00000  0.00000
  Ag   -1.42877  9.16750  4.78941   0.00049 -0.00328 -0.00263  0.00000  0.00000  0.00000  -0.01065  0.00000  0.00000  0.00000
  Ag    1.43968  9.17630  4.78909   0.00030  0.00024  0.00034  0.00000  0.00000  0.00000  -0.00746  0.00000  0.00000  0.00000
  Ag    4.32544  9.15779  4.79572  -0.00003 -0.00013 -0.00089  0.00000  0.00000  0.00000  -0.01126  0.00000  0.00000  0.00000
  Ag   -0.09817 -0.16898  7.29300  -0.00428 -0.00404 -0.00023  0.00000  0.00000  0.00000   0.06761  0.00000  0.00000  0.00000
  Ag    2.90392 -0.09996  7.20725   0.01245 -0.12556  0.03138  0.00000  0.00000  0.00000   0.14176  0.00000  0.00000  0.00000
  Ag    5.75831 -0.00444  7.27980   0.00166 -0.00166  0.00130  0.00000  0.00000  0.00000   0.02439  0.00000  0.00000  0.00000
  Ag    8.62638 -0.02438  7.27398   0.00081  0.00027 -0.00007  0.00000  0.00000  0.00000   0.00738  0.00000  0.00000  0.00000
  Ag   -1.49670  2.45013  7.22151  -0.00266  0.00080  0.00117  0.00000  0.00000  0.00000   0.05350  0.00000  0.00000  0.00000
   C    1.47641  2.34933  7.77539  -0.01018  0.04242  0.03745  0.00000  0.00000  0.00000   0.23418  0.00000  0.00000  0.00000
  Ag    4.42246  2.51599  7.52932   0.06982  0.03914  0.02806  0.00000  0.00000  0.00000   0.16255  0.00000  0.00000  0.00000
  Ag    7.23495  2.48160  7.28508   0.00043  0.00144  0.00127  0.00000  0.00000  0.00000   0.00823  0.00000  0.00000  0.00000
  Ag   -2.87387  4.96721  7.27334   0.00006 -0.00022 -0.00022  0.00000  0.00000  0.00000   0.00498  0.00000  0.00000  0.00000
  Ag   -0.01989  5.03346  7.36454   0.00066 -0.00096  0.00004  0.00000  0.00000  0.00000   0.05853  0.00000  0.00000  0.00000
  Ag    2.93061  5.05839  7.22043   0.00065  0.00299  0.00068  0.00000  0.00000  0.00000   0.04978  0.00000  0.00000  0.00000
  Ag    5.79840  4.98579  7.25949   0.00006 -0.00202  0.00138  0.00000  0.00000  0.00000   0.00562  0.00000  0.00000  0.00000
  Ag   -4.32559  7.42719  7.29201   0.00101  0.00122 -0.00037  0.00000  0.00000  0.00000  -0.00114  0.00000  0.00000  0.00000
  Ag   -1.45016  7.48201  7.27813  -0.00155 -0.00002  0.00014  0.00000  0.00000  0.00000   0.00576  0.00000  0.00000  0.00000
  Ag    1.42655  7.50653  7.24574   0.00025 -0.00018  0.00020  0.00000  0.00000  0.00000   0.00491  0.00000  0.00000  0.00000
  Ag    4.31539  7.46975  7.27095  -0.00008  0.00001  0.00024  0.00000  0.00000  0.00000   0.01529  0.00000  0.00000  0.00000
   C    2.50345  3.05797  8.57200   0.01593  0.01629  0.02592  0.00000  0.00000  0.00000  -0.14701  0.00000  0.00000  0.00000
   C    1.24606  3.60695  8.47499  -0.01251 -0.00304 -0.00816  0.00000  0.00000  0.00000  -0.14560  0.00000  0.00000  0.00000
   C    1.23554  1.45732  6.82109   0.01707 -0.01057 -0.01536  0.00000  0.00000  0.00000  -0.19420  0.00000  0.00000  0.00000
   C    2.89455  1.68159  6.82109  -0.09566  0.04070 -0.02578  0.00000  0.00000  0.00000  -0.34926  0.00000  0.00000  0.00000
68
   time=  150.000 (fs)  Energy= -7217.86026 (Hartree) Temperature= 450.000 (Given Temp.=  450.000) Cell_Vectors= 11.55570  0.00000  0.00000 -5.77848 10.00086  0.00000  0.00000  0.00000 23.00000
  Ag    0.00000  0.00000  0.00000   0.00058 -0.00000 -0.00605  0.00000  0.00000  0.00000   0.01502  0.00000  0.00000  0.00000
  Ag    2.88924  0.00000  0.00000   0.00024  0.00139 -0.00695  0.00000  0.00000  0.00000   0.02093  0.00000  0.00000  0.00000
  Ag    5.77848  0.00000  0.00000  -0.00019  0.00077 -0.00692  0.00000  0.00000  0.00000   0.01686  0.00000  0.00000  0.00000
  Ag    8.66771  0.00000  0.00000  -0.00063  0.00028 -0.00587  0.00000  0.00000  0.00000   0.00926  0.00000  0.00000  0.00000
  Ag   -1.44462  2.50215  0.00000   0.00005  0.00026 -0.00538  0.00000  0.00000  0.00000   0.02119  0.00000  0.00000  0.00000
  Ag    1.44462  2.50215  0.00000   0.00067  0.00035 -0.00629  0.00000  0.00000  0.00000   0.01956  0.00000  0.00000  0.00000
  Ag    4.33386  2.50215  0.00000  -0.00018 -0.00014 -0.00729  0.00000  0.00000  0.00000   0.00943  0.00000  0.00000  0.00000
  Ag    7.22310  2.50215  0.00000  -0.00013 -0.00026 -0.00599  0.00000  0.00000  0.00000   0.01678  0.00000  0.00000  0.00000
  Ag   -2.88924  5.00431  0.00000   0.00036  0.00041 -0.00599  0.00000  0.00000  0.00000   0.01091  0.00000  0.00000  0.00000
  Ag    0.00000  5.00431  0.00000  -0.00071  0.00025 -0.00569  0.00000  0.00000  0.00000   0.01295  0.00000  0.00000  0.00000
  Ag    2.88924  5.00431  0.00000   0.00027 -0.00106 -0.00574  0.00000  0.00000  0.00000   0.01414  0.00000  0.00000  0.00000
  Ag    5.77848  5.00431  0.00000   0.00063 -0.00034 -0.00648  0.00000  0.00000  0.00000   0.01366  0.00000  0.00000  0.00000
  Ag   -4.33386  7.50646  0.00000   0.00036 -0.00093 -0.00565  0.00000  0.00000  0.00000   0.01254  0.00000  0.00000  0.00000
  Ag   -1.44462  7.50646  0.00000   0.00028 -0.00059 -0.00608  0.00000  0.00000  0.00000   0.01610  0.00000  0.00000  0.00000
  Ag    1.44462  7.50646  0.00000  -0.00083 -0.00027 -0.00581  0.00000  0.00000  0.00000   0.01636  0.00000  0.00000  0.00000
  Ag    4.33386  7.50646  0.00000   0.00005 -0.00116 -0.00553  0.00000  0.00000  0.00000   0.01115  0.00000  0.00000  0.00000
  Ag    1.44462  0.83405  2.35905  -0.00145  0.00064  0.00694  0.00000  0.00000  0.00000  -0.01039  0.00000  0.00000  0.00000
  Ag    4.33386  0.83405  2.35905  -0.00067  0.00099  0.00781  0.00000  0.00000  0.00000  -0.01912  0.00000  0.00000  0.00000
  Ag    7.22310  0.83405  2.35905   0.00046  0.00092  0.00675  0.00000  0.00000  0.00000  -0.01994  0.00000  0.00000  0.00000
  Ag   10.11233  0.83405  2.35905   0.00075  0.00102  0.00743  0.00000  0.00000  0.00000  -0.01626  0.00000  0.00000  0.00000
  Ag    0.00000  3.33621  2.35905  -0.00212 -0.00047  0.00659  0.00000  0.00000  0.00000  -0.01637  0.00000  0.00000  0.00000
  Ag    2.88924  3.33621  2.35905   0.00018 -0.00000  0.00589  0.00000  0.00000  0.00000  -0.01458  0.00000  0.00000  0.00000
  Ag    5.77848  3.33621  2.35905   0.00048 -0.00061  0.00662  0.00000  0.00000  0.00000  -0.02172  0.00000  0.00000  0.00000
  Ag    8.66771  3.33621  2.35905   0.00090  0.00050  0.00686  0.00000  0.00000  0.00000  -0.01782  0.00000  0.00000  0.00000
  Ag   -1.44462  5.83836  2.35905  -0.00030  0.00015  0.00741  0.00000  0.00000  0.00000  -0.01882  0.00000  0.00000  0.00000
  Ag    1.44462  5.83836  2.35905  -0.00026  0.00219  0.00500  0.00000  0.00000  0.00000  -0.01232  0.00000  0.00000  0.00000
  Ag    4.33386  5.83836  2.35905  -0.00069  0.00122  0.00688  0.00000  0.00000  0.00000  -0.00570  0.00000  0.00000  0.00000
  Ag    7.22310  5.83836  2.35905  -0.00013  0.00035  0.00683  0.00000  0.00000  0.00000  -0.01349  0.00000  0.00000  0.00000
  Ag   -2.88924  8.34051  2.35905   0.00036 -0.00199  0.00476  0.00000  0.00000  0.00000  -0.01676  0.00000  0.00000  0.00000
  Ag    0.00000  8.34051  2.35905   0.00004 -0.00229  0.00623  0.00000  0.00000  0.00000  -0.01946  0.00000  0.00000  0.00000
  Ag    2.88924  8.34051  2.35905  -0.00006 -0.00160  0.00674  0.00000  0.00000  0.00000  -0.01602  0.00000  0.00000  0.00000
  Ag    5.77848  8.34051  2.35905  -0.00056 -0.00057  0.00597  0.00000  0.00000  0.00000  -0.00927  0.00000  0.00000  0.00000
  Ag    0.02079  1.67133  4.83116  -0.00263 -0.00135 -0.00085  0.00000  0.00000  0.00000   0.02747  0.00000  0.00000  0.00000
  Ag    2.89513  1.68227  4.85188   0.00939  0.00813 -0.06324  0.00000  0.00000  0.00000   0.06150  0.00000  0.00000  0.00000
  Ag    5.75977  1.68694  4.85921   0.00376  0.00029 -0.00261  0.00000  0.00000  0.00000   0.00592  0.00000  0.00000  0.00000
  Ag    8.66624  1.65246  4.79019  -0.00001 -0.00010 -0.00019  0.00000  0.00000  0.00000   0.00092  0.00000  0.00000  0.00000
  Ag   -1.42924  4.16104  4.82016  -0.00058  0.00047 -0.00014  0.00000  0.00000  0.00000  -0.00770  0.00000  0.00000  0.00000
  Ag    1.44773  4.18255  4.78063  -0.00040  0.00126 -0.00186  0.00000  0.00000  0.00000  -0.01584  0.00000  0.00000  0.00000
  Ag    4.34174  4.16110  4.82123   0.00006  0.00117 -0.00052  0.00000  0.00000  0.00000   0.00798  0.00000  0.00000  0.00000
  Ag    7.22531  4.16168  4.80039  -0.00052  0.00024  0.00061  0.00000  0.00000  0.00000  -0.01724  0.00000  0.00000  0.00000
  Ag   -2.87954  6.64874  4.81377  -0.00030  0.00022  0.00068  0.00000  0.00000  0.00000  -0.00574  0.00000  0.00000  0.00000
  Ag    0.00955  6.65563  4.83250  -0.00018  0.00024 -0.00027  0.00000  0.00000  0.00000  -0.00094  0.00000  0.00000  0.00000
  Ag    2.88855  6.65500  4.81052   0.00088  0.00086 -0.00044  0.00000  0.00000  0.00000  -0.00817  0.00000  0.00000  0.00000
  Ag    5.78044  6.66103  4.82099  -0.00049 -0.00034 -0.00009  0.00000  0.00000  0.00000  -0.01352  0.00000  0.00000  0.00000
  Ag   -4.32158  9.10761  4.76147  -0.00109 -0.00194 -0.00169  0.00000  0.00000  0.00000  -0.00164  0.00000  0.00000  0.00000
  Ag   -1.42873  9.16724  4.78921   0.00049 -0.00310 -0.00251  0.00000  0.00000  0.00000  -0.01060  0.00000  0.00000  0.00000
  Ag    1.43970  9.17632  4.78911   0.00028  0.00021  0.00031  0.00000  0.00000  0.00000  -0.00748  0.00000  0.00000  0.00000
  Ag    4.32543  9.15778  4.79565  -0.00005 -0.00015 -0.00088  0.00000  0.00000  0.00000  -0.01133  0.00000  0.00000  0.00000
  Ag   -0.09851 -0.16930  7.29298  -0.00413 -0.00397 -0.00019  0.00000  0.00000  0.00000   0.06785  0.00000  0.00000  0.00000
  Ag    2.90491 -0.10993  7.20974   0.01135 -0.11631  0.02927  0.00000  0.00000  0.00000   0.13897  0.00000  0.00000  0.00000
  Ag    5.75845 -0.00457  7.27991   0.00156 -0.00155  0.00122  0.00000  0.00000  0.00000   0.02411  0.00000  0.00000  0.00000
  Ag    8.62644 -0.02436  7.27397   0.00078  0.00027 -0.00006  0.00000  0.00000  0.00000   0.00737  0.00000  0.00000  0.00000
  Ag   -1.49691  2.45019  7.22161  -0.00250  0.00079  0.00105  0.00000  0.00000  0.00000   0.05364  0.00000  0.00000  0.00000
   C    1.47561  2.35270  7.77836  -0.01042  0.03787  0.03343  0.00000  0.00000  0.00000   0.23236  0.00000  0.00000  0.00000
  Ag    4.42800  2.51910  7.53154   0.06535  0.03569  0.02644  0.00000  0.00000  0.00000   0.16132  0.00000  0.00000  0.00000
  Ag    7.23499  2.48171  7.28519   0.00065  0.00133  0.00118  0.00000  0.00000  0.00000   0.00860  0.00000  0.00000  0.00000
  Ag   -2.87386  4.96719  7.27333   0.00004 -0.00020 -0.00021  0.00000  0.00000  0.00000   0.00496  0.00000  0.00000  0.00000
  Ag   -0.01984  5.03339  7.36454   0.00056 -0.00087  0.00003  0.00000  0.00000  0.00000   0.05813  0.00000  0.00000  0.00000
  Ag    2.93066  5.05862  7.22049   0.00065  0.00284  0.00065  0.00000  0.00000  0.00000   0.04983  0.00000  0.00000  0.00000
  Ag    5.79840  4.98563  7.25960   0.00014 -0.00177  0.00132  0.00000  0.00000  0.00000   0.00603  0.00000  0.00000  0.00000
  Ag   -4.32551  7.42728  7.29198   0.00082  0.00091 -0.00033  0.00000  0.00000  0.00000  -0.00080  0.00000  0.00000  0.00000
  Ag   -1.45028  7.48201  7.27814  -0.00126 -0.00037  0.00013  0.00000  0.00000  0.00000   0.00609  0.00000  0.00000  0.00000
  Ag    1.42657  7.50652  7.24575   0.00023 -0.00018  0.00019  0.00000  0.00000  0.00000   0.00498  0.00000  0.00000  0.00000
  Ag    4.31539  7.46975  7.27097  -0.00009  0.00000  0.00022  0.00000  0.00000  0.00000   0.01539  0.00000  0.00000  0.00000
   C    2.50472  3.05926  8.57406   0.01582  0.01634  0.02560  0.00000  0.00000  0.00000  -0.14737  0.00000  0.00000  0.00000
   C    1.24507  3.60671  8.47434  -0.01229 -0.00207 -0.00734  0.00000  0.00000  0.00000  -0.14531  0.00000  0.00000  0.00000
   C    1.23690  1.45648  6.81987   0.01935 -0.00778 -0.01229  0.00000  0.00000  0.00000  -0.19276  0.00000  0.00000  0.00000
   C    2.88695  1.68482  6.81904  -0.09533  0.03589 -0.02316  0.00000  0.00000  0.00000  -0.34581  0.00000  0.00000  0.00000
68
   time=  150.000 (fs)  Energy= -7217.86026 (Hartree) Temperature= 450.000 (Given Temp.=  450.000) Cell_Vectors= 11.55570  0.00000  0.00000 -5.77848 10.00086  0.00000  0.00000  0.00000 23.00000
  Ag    0.00000  0.00000  0.00000   0.00058 -0.00000 -0.00605  0.00000  0.00000  0.00000   0.01502  0.00000  0.00000  0.00000
  Ag    2.88924  0.00000  0.00000   0.00024  0.00139 -0.00695  0.00000  0.00000  0.00000   0.02093  0.00000  0.00000  0.00000
  Ag    5.77848  0.00000  0.00000  -0.00019  0.00077 -0.00692  0.00000  0.00000  0.00000   0.01686  0.00000  0.00000  0.00000
  Ag    8.66771  0.00000  0.00000  -0.00063  0.00028 -0.00587  0.00000  0.00000  0.00000   0.00926  0.00000  0.00000  0.00000
  Ag   -1.44462  2.50215  0.00000   0.00005  0.00026 -0.00538  0.00000  0.00000  0.00000   0.02119  0.00000  0.00000  0.00000
  Ag    1.44462  2.50215  0.00000   0.00067  0.00035 -0.00629  0.00000  0.00000  0.00000   0.01956  0.00000  0.00000  0.00000
  Ag    4.33386  2.50215  0.00000  -0.00018 -0.00014 -0.00729  0.00000  0.00000  0.00000   0.00943  0.00000  0.00000  0.00000
  Ag    7.22310  2.50215  0.00000  -0.00013 -0.00026 -0.00599  0.00000  0.00000  0.00000   0.01678  0.00000  0.00000  0.00000
  Ag   -2.88924  5.00431  0.00000   0.00036  0.00041 -0.00599  0.00000  0.00000  0.00000   0.01091  0.00000  0.00000  0.00000
  Ag    0.00000  5.00431  0.00000  -0.00071  0.00025 -0.00569  0.00000  0.00000  0.00000   0.01295  0.00000  0.00000  0.00000
  Ag    2.88924  5.00431  0.00000   0.00027 -0.00106 -0.00574  0.00000  0.00000  0.00000   0.01414  0.00000  0.00000  0.00000
  Ag    5.77848  5.00431  0.00000   0.00063 -0.00034 -0.00648  0.00000  0.00000  0.00000   0.01366  0.00000  0.00000  0.00000
  Ag   -4.33386  7.50646  0.00000   0.00036 -0.00093 -0.00565  0.00000  0.00000  0.00000   0.01254  0.00000  0.00000  0.00000
  Ag   -1.44462  7.50646  0.00000   0.00028 -0.00059 -0.00608  0.00000  0.00000  0.00000   0.01610  0.00000  0.00000  0.00000
  Ag    1.44462  7.50646  0.00000  -0.00083 -0.00027 -0.00581  0.00000  0.00000  0.00000   0.01636  0.00000  0.00000  0.00000
  Ag    4.33386  7.50646  0.00000   0.00005 -0.00116 -0.00553  0.00000  0.00000  0.00000   0.01115  0.00000  0.00000  0.00000
  Ag    1.44462  0.83405  2.35905  -0.00145  0.00064  0.00694  0.00000  0.00000  0.00000  -0.01039  0.00000  0.00000  0.00000
  Ag    4.33386  0.83405  2.35905  -0.00067  0.00099  0.00781  0.00000  0.00000  0.00000  -0.01912  0.00000  0.00000  0.00000
  Ag    7.22310  0.83405  2.35905   0.00046  0.00092  0.00675  0.00000  0.00000  0.00000  -0.01994  0.00000  0.00000  0.00000
  Ag   10.11233  0.83405  2.35905   0.00075  0.00102  0.00743  0.00000  0.00000  0.00000  -0.01626  0.00000  0.00000  0.00000
  Ag    0.00000  3.33621  2.35905  -0.00212 -0.00047  0.00659  0.00000  0.00000  0.00000  -0.01637  0.00000  0.00000  0.00000
  Ag    2.88924  3.33621  2.35905   0.00018 -0.00000  0.00589  0.00000  0.00000  0.00000  -0.01458  0.00000  0.00000  0.00000
  Ag    5.77848  3.33621  2.35905   0.00048 -0.00061  0.00662  0.00000  0.00000  0.00000  -0.02172  0.00000  0.00000  0.00000
  Ag    8.66771  3.33621  2.35905   0.00090  0.00050  0.00686  0.00000  0.00000  0.00000  -0.01782  0.00000  0.00000  0.00000
  Ag   -1.44462  5.83836  2.35905  -0.00030  0.00015  0.00741  0.00000  0.00000  0.00000  -0.01882  0.00000  0.00000  0.00000
  Ag    1.44462  5.83836  2.35905  -0.00026  0.00219  0.00500  0.00000  0.00000  0.00000  -0.01232  0.00000  0.00000  0.00000
  Ag    4.33386  5.83836  2.35905  -0.00069  0.00122  0.00688  0.00000  0.00000  0.00000  -0.00570  0.00000  0.00000  0.00000
  Ag    7.22310  5.83836  2.35905  -0.00013  0.00035  0.00683  0.00000  0.00000  0.00000  -0.01349  0.00000  0.00000  0.00000
  Ag   -2.88924  8.34051  2.35905   0.00036 -0.00199  0.00476  0.00000  0.00000  0.00000  -0.01676  0.00000  0.00000  0.00000
  Ag    0.00000  8.34051  2.35905   0.00004 -0.00229  0.00623  0.00000  0.00000  0.00000  -0.01946  0.00000  0.00000  0.00000
  Ag    2.88924  8.34051  2.35905  -0.00006 -0.00160  0.00674  0.00000  0.00000  0.00000  -0.01602  0.00000  0.00000  0.00000
  Ag    5.77848  8.34051  2.35905  -0.00056 -0.00057  0.00597  0.00000  0.00000  0.00000  -0.00927  0.00000  0.00000  0.00000
  Ag    0.02079  1.67133  4.83116  -0.00263 -0.00135 -0.00085  0.00000  0.00000  0.00000   0.02747  0.00000  0.00000  0.00000
  Ag    2.89513  1.68227  4.85188   0.00939  0.00813 -0.06324  0.00000  0.00000  0.00000   0.06150  0.00000  0.00000  0.00000
  Ag    5.75977  1.68694  4.85921   0.00376  0.00029 -0.00261  0.00000  0.00000  0.00000   0.00592  0.00000  0.00000  0.00000
  Ag    8.66624  1.65246  4.79019  -0.00001 -0.00010 -0.00019  0.00000  0.00000  0.00000   0.00092  0.00000  0.00000  0.00000
  Ag   -1.42924  4.16104  4.82016  -0.00058  0.00047 -0.00014  0.00000  0.00000  0.00000  -0.00770  0.00000  0.00000  0.00000
  Ag    1.44773  4.18255  4.78063  -0.00040  0.00126 -0.00186  0.00000  0.00000  0.00000  -0.01584  0.00000  0.00000  0.00000
  Ag    4.34174  4.16110  4.82123   0.00006  0.00117 -0.00052  0.00000  0.00000  0.00000   0.00798  0.00000  0.00000  0.00000
  Ag    7.22531  4.16168  4.80039  -0.00052  0.00024  0.00061  0.00000  0.00000  0.00000  -0.01724  0.00000  0.00000  0.00000
  Ag   -2.87954  6.64874  4.81377  -0.00030  0.00022  0.00068  0.00000  0.00000  0.00000  -0.00574  0.00000  0.00000  0.00000
  Ag    0.00955  6.65563  4.83250  -0.00018  0.00024 -0.00027  0.00000  0.00000  0.00000  -0.00094  0.00000  0.00000  0.00000
  Ag    2.88855  6.65500  4.81052   0.00088  0.00086 -0.00044  0.00000  0.00000  0.00000  -0.00817  0.00000  0.00000  0.00000
  Ag    5.78044  6.66103  4.82099  -0.00049 -0.00034 -0.00009  0.00000  0.00000  0.00000  -0.01352  0.00000  0.00000  0.00000
  Ag   -4.32158  9.10761  4.76147  -0.00109 -0.00194 -0.00169  0.00000  0.00000  0.00000  -0.00164  0.00000  0.00000  0.00000
  Ag   -1.42873  9.16724  4.78921   0.00049 -0.00310 -0.00251  0.00000  0.00000  0.00000  -0.01060  0.00000  0.00000  0.00000
  Ag    1.43970  9.17632  4.78911   0.00028  0.00021  0.00031  0.00000  0.00000  0.00000  -0.00748  0.00000  0.00000  0.00000
  Ag    4.32543  9.15778  4.79565  -0.00005 -0.00015 -0.00088  0.00000  0.00000  0.00000  -0.01133  0.00000  0.00000  0.00000
  Ag   -0.09851 -0.16930  7.29298  -0.00413 -0.00397 -0.00019  0.00000  0.00000  0.00000   0.06785  0.00000  0.00000  0.00000
  Ag    2.90491 -0.10993  7.20974   0.01135 -0.11631  0.02927  0.00000  0.00000  0.00000   0.13897  0.00000  0.00000  0.00000
  Ag    5.75845 -0.00457  7.27991   0.00156 -0.00155  0.00122  0.00000  0.00000  0.00000   0.02411  0.00000  0.00000  0.00000
  Ag    8.62644 -0.02436  7.27397   0.00078  0.00027 -0.00006  0.00000  0.00000  0.00000   0.00737  0.00000  0.00000  0.00000
  Ag   -1.49691  2.45019  7.22161  -0.00250  0.00079  0.00105  0.00000  0.00000  0.00000   0.05364  0.00000  0.00000  0.00000
   C    1.47561  2.35270  7.77836  -0.01042  0.03787  0.03343  0.00000  0.00000  0.00000   0.23236  0.00000  0.00000  0.00000
  Ag    4.42800  2.51910  7.53154   0.06535  0.03569  0.02644  0.00000  0.00000  0.00000   0.16132  0.00000  0.00000  0.00000
  Ag    7.23499  2.48171  7.28519   0.00065  0.00133  0.00118  0.00000  0.00000  0.00000   0.00860  0.00000  0.00000  0.00000
  Ag   -2.87386  4.96719  7.27333   0.00004 -0.00020 -0.00021  0.00000  0.00000  0.00000   0.00496  0.00000  0.00000  0.00000
  Ag   -0.01984  5.03339  7.36454   0.00056 -0.00087  0.00003  0.00000  0.00000  0.00000   0.05813  0.00000  0.00000  0.00000
  Ag    2.93066  5.05862  7.22049   0.00065  0.00284  0.00065  0.00000  0.00000  0.00000   0.04983  0.00000  0.00000  0.00000
  Ag    5.79840  4.98563  7.25960   0.00014 -0.00177  0.00132  0.00000  0.00000  0.00000   0.00603  0.00000  0.00000  0.00000
  Ag   -4.32551  7.42728  7.29198   0.00082  0.00091 -0.00033  0.00000  0.00000  0.00000  -0.00080  0.00000  0.00000  0.00000
  Ag   -1.45028  7.48201  7.27814  -0.00126 -0.00037  0.00013  0.00000  0.00000  0.00000   0.00609  0.00000  0.00000  0.00000
  Ag    1.42657  7.50652  7.24575   0.00023 -0.00018  0.00019  0.00000  0.00000  0.00000   0.00498  0.00000  0.00000  0.00000
  Ag    4.31539  7.46975  7.27097  -0.00009  0.00000  0.00022  0.00000  0.00000  0.00000   0.01539  0.00000  0.00000  0.00000
   C    2.50472  3.05926  8.57406   0.01582  0.01634  0.02560  0.00000  0.00000  0.00000  -0.14737  0.00000  0.00000  0.00000
   C    1.24507  3.60671  8.47434  -0.01229 -0.00207 -0.00734  0.00000  0.00000  0.00000  -0.14531  0.00000  0.00000  0.00000
   C    1.23690  1.45648  6.81987   0.01935 -0.00778 -0.01229  0.00000  0.00000  0.00000  -0.19276  0.00000  0.00000  0.00000
   C    2.88695  1.68482  6.81904  -0.09533  0.03589 -0.02316  0.00000  0.00000  0.00000  -0.34581  0.00000  0.00000  0.00000
68
   time=  150.000 (fs)  Energy= -7217.86026 (Hartree) Temperature= 450.000 (Given Temp.=  450.000) Cell_Vectors= 11.55570  0.00000  0.00000 -5.77848 10.00086  0.00000  0.00000  0.00000 23.00000
  Ag    0.00000  0.00000  0.00000   0.00058 -0.00000 -0.00605  0.00000  0.00000  0.00000   0.01502  0.00000  0.00000  0.00000
  Ag    2.88924  0.00000  0.00000   0.00024  0.00139 -0.00695  0.00000  0.00000  0.00000   0.02093  0.00000  0.00000  0.00000
  Ag    5.77848  0.00000  0.00000  -0.00019  0.00077 -0.00692  0.00000  0.00000  0.00000   0.01686  0.00000  0.00000  0.00000
  Ag    8.66771  0.00000  0.00000  -0.00063  0.00028 -0.00587  0.00000  0.00000  0.00000   0.00926  0.00000  0.00000  0.00000
  Ag   -1.44462  2.50215  0.00000   0.00005  0.00026 -0.00538  0.00000  0.00000  0.00000   0.02119  0.00000  0.00000  0.00000
  Ag    1.44462  2.50215  0.00000   0.00067  0.00035 -0.00629  0.00000  0.00000  0.00000   0.01956  0.00000  0.00000  0.00000
  Ag    4.33386  2.50215  0.00000  -0.00018 -0.00014 -0.00729  0.00000  0.00000  0.00000   0.00943  0.00000  0.00000  0.00000
  Ag    7.22310  2.50215  0.00000  -0.00013 -0.00026 -0.00599  0.00000  0.00000  0.00000   0.01678  0.00000  0.00000  0.00000
  Ag   -2.88924  5.00431  0.00000   0.00036  0.00041 -0.00599  0.00000  0.00000  0.00000   0.01091  0.00000  0.00000  0.00000
  Ag    0.00000  5.00431  0.00000  -0.00071  0.00025 -0.00569  0.00000  0.00000  0.00000   0.01295  0.00000  0.00000  0.00000
  Ag    2.88924  5.00431  0.00000   0.00027 -0.00106 -0.00574  0.00000  0.00000  0.00000   0.01414  0.00000  0.00000  0.00000
  Ag    5.77848  5.00431  0.00000   0.00063 -0.00034 -0.00648  0.00000  0.00000  0.00000   0.01366  0.00000  0.00000  0.00000
  Ag   -4.33386  7.50646  0.00000   0.00036 -0.00093 -0.00565  0.00000  0.00000  0.00000   0.01254  0.00000  0.00000  0.00000
  Ag   -1.44462  7.50646  0.00000   0.00028 -0.00059 -0.00608  0.00000  0.00000  0.00000   0.01610  0.00000  0.00000  0.00000
  Ag    1.44462  7.50646  0.00000  -0.00083 -0.00027 -0.00581  0.00000  0.00000  0.00000   0.01636  0.00000  0.00000  0.00000
  Ag    4.33386  7.50646  0.00000   0.00005 -0.00116 -0.00553  0.00000  0.00000  0.00000   0.01115  0.00000  0.00000  0.00000
  Ag    1.44462  0.83405  2.35905  -0.00145  0.00064  0.00694  0.00000  0.00000  0.00000  -0.01039  0.00000  0.00000  0.00000
  Ag    4.33386  0.83405  2.35905  -0.00067  0.00099  0.00781  0.00000  0.00000  0.00000  -0.01912  0.00000  0.00000  0.00000
  Ag    7.22310  0.83405  2.35905   0.00046  0.00092  0.00675  0.00000  0.00000  0.00000  -0.01994  0.00000  0.00000  0.00000
  Ag   10.11233  0.83405  2.35905   0.00075  0.00102  0.00743  0.00000  0.00000  0.00000  -0.01626  0.00000  0.00000  0.00000
  Ag    0.00000  3.33621  2.35905  -0.00212 -0.00047  0.00659  0.00000  0.00000  0.00000  -0.01637  0.00000  0.00000  0.00000
  Ag    2.88924  3.33621  2.35905   0.00018 -0.00000  0.00589  0.00000  0.00000  0.00000  -0.01458  0.00000  0.00000  0.00000
  Ag    5.77848  3.33621  2.35905   0.00048 -0.00061  0.00662  0.00000  0.00000  0.00000  -0.02172  0.00000  0.00000  0.00000
  Ag    8.66771  3.33621  2.35905   0.00090  0.00050  0.00686  0.00000  0.00000  0.00000  -0.01782  0.00000  0.00000  0.00000
  Ag   -1.44462  5.83836  2.35905  -0.00030  0.00015  0.00741  0.00000  0.00000  0.00000  -0.01882  0.00000  0.00000  0.00000
  Ag    1.44462  5.83836  2.35905  -0.00026  0.00219  0.00500  0.00000  0.00000  0.00000  -0.01232  0.00000  0.00000  0.00000
  Ag    4.33386  5.83836  2.35905  -0.00069  0.00122  0.00688  0.00000  0.00000  0.00000  -0.00570  0.00000  0.00000  0.00000