<?xml version="1.0" encoding="ISO-8859-1"?>
<modeling>
 <generator>
  <i name="program" type="string">vasp </i>
  <i name="version" type="string">5.4.4.18Apr17-6-g9f103f2a35  </i>
  <i name="subversion" type="string">(build Aug 31 2019 18:36:56) complex            parallel </i>
  <i name="platform" type="string">LinuxIFC </i>
  <i name="date" type="string">2024 05 15 </i>
  <i name="time" type="string">09:58:58 </i>
 </generator>
 <incar>
  <i type="string" name="PREC">low</i>
  <i type="string" name="ALGO"> Very Fast</i>
  <i type="int" name="IBRION">     0</i>
  <i name="EDIFF">      0.00001000</i>
  <i type="int" name="NSW">  6000</i>
  <i type="int" name="ISIF">     2</i>
  <i type="int" name="ISYM">     0</i>
  <i name="ENCUT">    400.00000000</i>
  <i name="POTIM">      3.00000000</i>
  <i name="TEBEG">   1400.00000000</i>
  <i name="SMASS">      1.00000000</i>
  <i type="string" name="LREAL"> Auto</i>
  <i type="int" name="ISMEAR">     0</i>
  <i name="SIGMA">      0.10000000</i>
  <i type="logical" name="LWAVE"> F  </i>
  <i type="logical" name="LCHARG"> F  </i>
  <i type="int" name="MDALGO">     2</i>
  <v type="int" name="KPOINT_BSE">    -1     0     0     0</v>
 </incar>
 <structure name="primitive_cell" >
  <crystal>
   <varray name="basis" >
    <v>      11.88417789       0.00000000       0.00000000 </v>
    <v>       0.00000000      11.88417789       0.00000000 </v>
    <v>       0.00000000       0.00000000      11.88417789 </v>
   </varray>
   <i name="volume">   1678.44622616 </i>
   <varray name="rec_basis" >
    <v>       0.08414549      -0.00000000       0.00000000 </v>
    <v>       0.00000000       0.08414549       0.00000000 </v>
    <v>      -0.00000000      -0.00000000       0.08414549 </v>
   </varray>
  </crystal>
  <varray name="positions" >
   <v>      -0.35793196       0.03995486       0.04100646 </v>
   <v>       0.46230206       0.06337517       0.07683561 </v>
   <v>      -0.21192793      -0.05891800      -0.03582946 </v>
   <v>      -0.27775518      -0.06492369       0.18423182 </v>
   <v>      -0.24995451       0.20179938      -0.02221016 </v>
   <v>      -0.46875781       0.09565542      -0.13720679 </v>
   <v>      -0.39349409       0.06736127       0.26902878 </v>
   <v>      -0.40554687       0.26158206       0.11108915 </v>
   <v>       0.49899477      -0.12368272       0.15470560 </v>
   <v>      -0.26006654       0.10417954      -0.18539599 </v>
   <v>      -0.39753126      -0.11912709      -0.16375491 </v>
   <v>      -0.21621533       0.20859992       0.21957685 </v>
   <v>      -0.36997187      -0.23992079      -0.01441193 </v>
   <v>      -0.06704818       0.06223294       0.02738119 </v>
   <v>       0.46530463       0.21480490       0.22464678 </v>
   <v>      -0.43158087       0.31881375      -0.09016082 </v>
   <v>       0.42874912      -0.17747515      -0.05084172 </v>
   <v>      -0.32347160      -0.25601831       0.17118908 </v>
   <v>       0.37862445       0.24705814       0.03666900 </v>
   <v>      -0.38353954       0.01805679      -0.29662177 </v>
   <v>      -0.09507201       0.26388277       0.02525686 </v>
   <v>      -0.24521327       0.36329560       0.09012863 </v>
   <v>      -0.24078812      -0.02170927       0.36499197 </v>
   <v>      -0.05156045      -0.10579126       0.17373524 </v>
   <v>      -0.42117947      -0.14826580       0.35396262 </v>
   <v>      -0.13638148      -0.25525097       0.09265761 </v>
   <v>       0.42582638       0.06001482       0.34852276 </v>
   <v>      -0.02448076      -0.12115340      -0.04040929 </v>
   <v>       0.28209455       0.10754685      -0.05756287 </v>
   <v>      -0.03720659       0.13707734      -0.16556432 </v>
   <v>      -0.18010464      -0.21543216       0.29633619 </v>
   <v>      -0.37188249       0.30880739       0.34131842 </v>
   <v>      -0.23836972       0.34853955      -0.19273384 </v>
   <v>      -0.22608878      -0.14466453      -0.29660947 </v>
   <v>      -0.31858608      -0.28605666      -0.20009531 </v>
   <v>       0.45663919      -0.31844007       0.09735264 </v>
   <v>       0.25123849       0.13196463       0.11039766 </v>
   <v>      -0.09531277       0.08207892       0.35016994 </v>
   <v>       0.34544537      -0.07931837      -0.21615882 </v>
   <v>       0.38845469      -0.15813580       0.30347047 </v>
   <v>       0.40046674       0.26208731      -0.21557656 </v>
   <v>       0.27999747      -0.15612967       0.11932978 </v>
   <v>      -0.15017667      -0.29975051      -0.10239077 </v>
   <v>      -0.04545415      -0.05441978      -0.23562793 </v>
   <v>       0.27056297      -0.00027616       0.25212044 </v>
   <v>      -0.38444274       0.18432681      -0.36309379 </v>
   <v>      -0.48182500       0.42011203       0.20505323 </v>
   <v>       0.02580215       0.17092789       0.19863044 </v>
   <v>       0.49168157      -0.20126301      -0.29300559 </v>
   <v>      -0.15294083       0.18138337      -0.32799088 </v>
   <v>      -0.26084227       0.17933862       0.45469094 </v>
   <v>      -0.48441527      -0.34597098      -0.15273527 </v>
   <v>      -0.39226357       0.01579746       0.49188182 </v>
   <v>       0.08790637       0.00590897       0.11709836 </v>
   <v>      -0.07627127       0.37073223       0.18109558 </v>
   <v>      -0.29256777      -0.40911394      -0.00976166 </v>
   <v>       0.47062929       0.23409727       0.41827778 </v>
   <v>      -0.17265562       0.31341958       0.36215225 </v>
   <v>       0.08851591       0.17114721      -0.00812427 </v>
   <v>      -0.45741764      -0.36787892       0.25521702 </v>
   <v>      -0.22136796      -0.00174709      -0.41418977 </v>
   <v>      -0.48643696      -0.49452474       0.01084536 </v>
   <v>      -0.12577143       0.45683836      -0.06266642 </v>
   <v>      -0.41097139       0.40906532      -0.28107990 </v>
   <v>       0.45245530       0.05624038      -0.41950455 </v>
   <v>       0.29700241       0.12896412      -0.31002428 </v>
   <v>       0.17234832      -0.10671704      -0.06520198 </v>
   <v>       0.45699892      -0.09620008       0.48903426 </v>
   <v>       0.02776928       0.33762997      -0.08647534 </v>
   <v>       0.23508736       0.22690589       0.28299791 </v>
   <v>       0.27040910       0.37477059      -0.07242850 </v>
   <v>       0.07706463      -0.24288978       0.09710832 </v>
   <v>      -0.02741347      -0.09628590       0.42718869 </v>
   <v>       0.09793376      -0.01290331       0.29997662 </v>
   <v>      -0.36470861      -0.17585939      -0.44135409 </v>
   <v>       0.25881713      -0.25816865      -0.16931932 </v>
   <v>      -0.22508238      -0.43990995       0.22693928 </v>
   <v>      -0.32567460      -0.33921752       0.42679834 </v>
   <v>       0.40822285       0.44526930      -0.23849599 </v>
   <v>       0.28741044      -0.32517847       0.23764239 </v>
   <v>       0.23380753      -0.33471185       0.03350567 </v>
   <v>      -0.16056607      -0.20120617      -0.49785374 </v>
   <v>       0.44044872       0.32740849      -0.39395631 </v>
   <v>       0.06845177      -0.21777741       0.29682381 </v>
   <v>       0.07516741      -0.25759778      -0.15950939 </v>
   <v>      -0.00673460      -0.40024415       0.00311153 </v>
   <v>       0.16182735       0.21330788      -0.20004436 </v>
   <v>      -0.21476670       0.34656406      -0.41410193 </v>
   <v>       0.13042165       0.00572126      -0.24899909 </v>
   <v>       0.32464088       0.49633861       0.18742180 </v>
   <v>      -0.03083553      -0.26676928      -0.32102290 </v>
   <v>       0.00694155       0.02432320      -0.40570240 </v>
   <v>      -0.21906291      -0.45495969      -0.22789304 </v>
   <v>       0.38175484      -0.34368499      -0.30794670 </v>
   <v>       0.33295140      -0.43322059      -0.09233216 </v>
   <v>      -0.05345925       0.23941349       0.49404821 </v>
   <v>       0.31921692       0.38163425       0.38427093 </v>
   <v>      -0.46844694       0.49693344       0.38867852 </v>
   <v>       0.14052283       0.33739868       0.11468398 </v>
   <v>       0.04876246       0.32864970       0.34926350 </v>
   <v>      -0.38340235       0.37272506      -0.47271263 </v>
   <v>      -0.26924646       0.47831908       0.42660916 </v>
   <v>      -0.01493532       0.32821845      -0.34564781 </v>
   <v>       0.47881008      -0.28946985      -0.49495801 </v>
   <v>       0.26448091       0.15217815       0.48563724 </v>
   <v>      -0.38533915      -0.40263970      -0.35809638 </v>
   <v>       0.09278303       0.13419658       0.42175838 </v>
   <v>      -0.09240155      -0.36994322       0.41946065 </v>
   <v>       0.24133350      -0.04181246      -0.49513965 </v>
   <v>      -0.19387758      -0.37785364      -0.41299508 </v>
   <v>      -0.02183674      -0.47037375       0.28421587 </v>
   <v>       0.20424239       0.39957835      -0.26713025 </v>
   <v>      -0.01112128      -0.48051254      -0.21604800 </v>
   <v>       0.14286420      -0.15562538      -0.32142261 </v>
   <v>       0.33579329      -0.42206316       0.40432650 </v>
   <v>       0.28200161      -0.27359671      -0.48665153 </v>
   <v>       0.10830944      -0.46623228       0.13860037 </v>
   <v>       0.13589539       0.22881700      -0.40333382 </v>
   <v>       0.07976673      -0.24935704      -0.47956062 </v>
   <v>       0.41614292      -0.47805430      -0.43139068 </v>
   <v>       0.15136678      -0.46129017      -0.13297751 </v>
   <v>       0.15848280      -0.36085664      -0.33373506 </v>
   <v>      -0.01346728      -0.43795987      -0.41320656 </v>
   <v>       0.13121502      -0.42341865       0.36867058 </v>
   <v>       0.14606042       0.44654975      -0.45084429 </v>
  </varray>
 </structure>
 <varray name="primitive_index" >
  <v type="int" >        1 </v>
  <v type="int" >       56 </v>
  <v type="int" >      100 </v>
  <v type="int" >       76 </v>
  <v type="int" >       72 </v>
  <v type="int" >       86 </v>
  <v type="int" >       63 </v>
  <v type="int" >       58 </v>
  <v type="int" >       52 </v>
  <v type="int" >      125 </v>
  <v type="int" >      101 </v>
  <v type="int" >       88 </v>
  <v type="int" >      120 </v>
  <v type="int" >        5 </v>
  <v type="int" >       38 </v>
  <v type="int" >      111 </v>
  <v type="int" >       51 </v>
  <v type="int" >       91 </v>
  <v type="int" >       81 </v>
  <v type="int" >       80 </v>
  <v type="int" >        6 </v>
  <v type="int" >       82 </v>
  <v type="int" >      103 </v>
  <v type="int" >      121 </v>
  <v type="int" >       79 </v>
  <v type="int" >       17 </v>
  <v type="int" >       71 </v>
  <v type="int" >       25 </v>
  <v type="int" >       60 </v>
  <v type="int" >        4 </v>
  <v type="int" >       97 </v>
  <v type="int" >       89 </v>
  <v type="int" >      110 </v>
  <v type="int" >      124 </v>
  <v type="int" >       69 </v>
  <v type="int" >       96 </v>
  <v type="int" >       37 </v>
  <v type="int" >       77 </v>
  <v type="int" >       53 </v>
  <v type="int" >       47 </v>
  <v type="int" >       85 </v>
  <v type="int" >       92 </v>
  <v type="int" >       16 </v>
  <v type="int" >       29 </v>
  <v type="int" >       21 </v>
  <v type="int" >      106 </v>
  <v type="int" >       87 </v>
  <v type="int" >        7 </v>
  <v type="int" >       75 </v>
  <v type="int" >       33 </v>
  <v type="int" >      108 </v>
  <v type="int" >       50 </v>
  <v type="int" >       83 </v>
  <v type="int" >       27 </v>
  <v type="int" >      117 </v>
  <v type="int" >      116 </v>
  <v type="int" >       84 </v>
  <v type="int" >      113 </v>
  <v type="int" >       31 </v>
  <v type="int" >       98 </v>
  <v type="int" >      104 </v>
  <v type="int" >       95 </v>
  <v type="int" >       11 </v>
  <v type="int" >       90 </v>
  <v type="int" >       55 </v>
  <v type="int" >       64 </v>
  <v type="int" >       26 </v>
  <v type="int" >       78 </v>
  <v type="int" >       66 </v>
  <v type="int" >        9 </v>
  <v type="int" >       57 </v>
  <v type="int" >       41 </v>
  <v type="int" >      107 </v>
  <v type="int" >       22 </v>
  <v type="int" >      123 </v>
  <v type="int" >       49 </v>
  <v type="int" >       93 </v>
  <v type="int" >      118 </v>
  <v type="int" >       65 </v>
  <v type="int" >       18 </v>
  <v type="int" >       67 </v>
  <v type="int" >      122 </v>
  <v type="int" >       44 </v>
  <v type="int" >      102 </v>
  <v type="int" >       46 </v>
  <v type="int" >       45 </v>
  <v type="int" >       61 </v>
  <v type="int" >        3 </v>
  <v type="int" >       59 </v>
  <v type="int" >       42 </v>
  <v type="int" >       24 </v>
  <v type="int" >       23 </v>
  <v type="int" >      115 </v>
  <v type="int" >       73 </v>
  <v type="int" >       70 </v>
  <v type="int" >        8 </v>
  <v type="int" >       35 </v>
  <v type="int" >       19 </v>
  <v type="int" >       36 </v>
  <v type="int" >      112 </v>
  <v type="int" >      114 </v>
  <v type="int" >      105 </v>
  <v type="int" >       10 </v>
  <v type="int" >       74 </v>
  <v type="int" >       34 </v>
  <v type="int" >       99 </v>
  <v type="int" >        2 </v>
  <v type="int" >      119 </v>
  <v type="int" >       32 </v>
  <v type="int" >       94 </v>
  <v type="int" >       12 </v>
  <v type="int" >       40 </v>
  <v type="int" >       14 </v>
  <v type="int" >       30 </v>
  <v type="int" >       39 </v>
  <v type="int" >       48 </v>
  <v type="int" >       43 </v>
  <v type="int" >       28 </v>
  <v type="int" >       20 </v>
  <v type="int" >       54 </v>
  <v type="int" >       62 </v>
  <v type="int" >       15 </v>
  <v type="int" >      109 </v>
  <v type="int" >       13 </v>
  <v type="int" >       68 </v>
 </varray>
 <kpoints>
  <generation param="Gamma">
   <v type="int" name="divisions">       1        1        1 </v>
   <v name="usershift">      0.00000000       0.00000000       0.00000000 </v>
   <v name="genvec1">      1.00000000       0.00000000       0.00000000 </v>
   <v name="genvec2">      0.00000000       1.00000000       0.00000000 </v>
   <v name="genvec3">      0.00000000       0.00000000       1.00000000 </v>
   <v name="shift">      0.00000000       0.00000000       0.00000000 </v>
  </generation>
  <varray name="kpointlist" >
   <v>       0.00000000       0.00000000       0.00000000 </v>
  </varray>
  <varray name="weights" >
   <v>       1.00000000 </v>
  </varray>
 </kpoints>
 <parameters>
  <separator name="general" >
   <i type="string" name="SYSTEM">unknown system</i>
   <i type="logical" name="LCOMPAT"> F  </i>
  </separator>
  <separator name="electronic" >
   <i type="string" name="PREC">low</i>
   <i name="ENMAX">    400.00000000</i>
   <i name="ENAUG">    586.98000000</i>
   <i name="EDIFF">      0.00001000</i>
   <i type="int" name="IALGO">    48</i>
   <i type="int" name="IWAVPR">    12</i>
   <i type="int" name="NBANDS">   828</i>
   <i name="NELECT">   1375.00000000</i>
   <i type="int" name="TURBO">     0</i>
   <i type="int" name="IRESTART">     0</i>
   <i type="int" name="NREBOOT">     0</i>
   <i type="int" name="NMIN">     0</i>
   <i name="EREF">      0.00000000</i>
   <separator name="electronic smearing" >
    <i type="int" name="ISMEAR">     0</i>
    <i name="SIGMA">      0.10000000</i>
    <i name="KSPACING">      0.50000000</i>
    <i type="logical" name="KGAMMA"> T  </i>
   </separator>
   <separator name="electronic projectors" >
    <i type="logical" name="LREAL"> T  </i>
    <v name="ROPT">     -0.01000000</v>
    <i type="int" name="LMAXPAW">  -100</i>
    <i type="int" name="LMAXMIX">     2</i>
    <i type="logical" name="NLSPLINE"> F  </i>
   </separator>
   <separator name="electronic startup" >
    <i type="int" name="ISTART">     0</i>
    <i type="int" name="ICHARG">     2</i>
    <i type="int" name="INIWAV">     1</i>
   </separator>
   <separator name="electronic spin" >
    <i type="int" name="ISPIN">     1</i>
    <i type="logical" name="LNONCOLLINEAR"> F  </i>
    <v name="MAGMOM">      1.00000000      1.00000000      1.00000000      1.00000000      1.00000000      1.00000000      1.00000000      1.00000000      1.00000000      1.00000000      1.00000000      1.00000000      1.00000000      1.00000000      1.00000000      1.00000000      1.00000000      1.00000000      1.00000000      1.00000000
      1.00000000      1.00000000      1.00000000      1.00000000      1.00000000      1.00000000      1.00000000      1.00000000      1.00000000      1.00000000      1.00000000      1.00000000      1.00000000      1.00000000      1.00000000      1.00000000      1.00000000      1.00000000      1.00000000      1.00000000
      1.00000000      1.00000000      1.00000000      1.00000000      1.00000000      1.00000000      1.00000000      1.00000000      1.00000000      1.00000000      1.00000000      1.00000000      1.00000000      1.00000000      1.00000000      1.00000000      1.00000000      1.00000000      1.00000000      1.00000000
      1.00000000      1.00000000      1.00000000      1.00000000      1.00000000      1.00000000      1.00000000      1.00000000      1.00000000      1.00000000      1.00000000      1.00000000      1.00000000      1.00000000      1.00000000      1.00000000      1.00000000      1.00000000      1.00000000      1.00000000
      1.00000000      1.00000000      1.00000000      1.00000000      1.00000000      1.00000000      1.00000000      1.00000000      1.00000000      1.00000000      1.00000000      1.00000000      1.00000000      1.00000000      1.00000000      1.00000000      1.00000000      1.00000000      1.00000000      1.00000000
      1.00000000      1.00000000      1.00000000      1.00000000      1.00000000      1.00000000      1.00000000      1.00000000      1.00000000      1.00000000      1.00000000      1.00000000      1.00000000      1.00000000      1.00000000      1.00000000      1.00000000      1.00000000      1.00000000      1.00000000
      1.00000000      1.00000000      1.00000000      1.00000000      1.00000000</v>
    <i name="NUPDOWN">     -1.00000000</i>
    <i type="logical" name="LSORBIT"> F  </i>
    <v name="SAXIS">      0.00000000      0.00000000      1.00000000</v>
    <i type="logical" name="LSPIRAL"> F  </i>
    <v name="QSPIRAL">      0.00000000      0.00000000      0.00000000</v>
    <i type="logical" name="LZEROZ"> F  </i>
   </separator>
   <separator name="electronic exchange-correlation" >
    <i type="logical" name="LASPH"> F  </i>
    <i type="logical" name="LMETAGGA"> F  </i>
   </separator>
   <separator name="electronic convergence" >
    <i type="int" name="NELM">    60</i>
    <i type="int" name="NELMDL">   -12</i>
    <i type="int" name="NELMIN">     2</i>
    <i name="ENINI">    400.00000000</i>
    <separator name="electronic convergence detail" >
     <i type="logical" name="LDIAG"> T  </i>
     <i type="logical" name="LSUBROT"> F  </i>
     <i name="WEIMIN">      0.00100000</i>
     <i name="EBREAK">      0.00000000</i>
     <i name="DEPER">      0.30000000</i>
     <i type="int" name="NRMM">     4</i>
     <i name="TIME">      0.40000000</i>
    </separator>
   </separator>
   <separator name="electronic mixer" >
    <i name="AMIX">      0.40000000</i>
    <i name="BMIX">      1.00000000</i>
    <i name="AMIN">      0.10000000</i>
    <i name="AMIX_MAG">      1.60000000</i>
    <i name="BMIX_MAG">      1.00000000</i>
    <separator name="electronic mixer details" >
     <i type="int" name="IMIX">     4</i>
     <i type="logical" name="MIXFIRST"> F  </i>
     <i type="int" name="MAXMIX">   -45</i>
     <i name="WC">    100.00000000</i>
     <i type="int" name="INIMIX">     1</i>
     <i type="int" name="MIXPRE">     1</i>
     <i type="int" name="MREMOVE">     5</i>
    </separator>
   </separator>
   <separator name="electronic dipolcorrection" >
    <i type="logical" name="LDIPOL"> F  </i>
    <i type="logical" name="LMONO"> F  </i>
    <i type="int" name="IDIPOL">     0</i>
    <i name="EPSILON">      1.00000000</i>
    <v name="DIPOL">   -100.00000000   -100.00000000   -100.00000000</v>
    <i name="EFIELD">      0.00000000</i>
   </separator>
  </separator>
  <separator name="grids" >
   <i type="int" name="NGX">    60</i>
   <i type="int" name="NGY">    60</i>
   <i type="int" name="NGZ">    60</i>
   <i type="int" name="NGXF">    70</i>
   <i type="int" name="NGYF">    70</i>
   <i type="int" name="NGZF">    70</i>
   <i type="logical" name="ADDGRID"> F  </i>
  </separator>
  <separator name="ionic" >
   <i type="int" name="NSW">  6000</i>
   <i type="int" name="IBRION">     0</i>
   <i type="int" name="MDALGO">     2</i>
   <i type="int" name="ISIF">     2</i>
   <i name="PSTRESS">      0.00000000</i>
   <i name="EDIFFG">      0.00010000</i>
   <i type="int" name="NFREE">     0</i>
   <i name="POTIM">      3.00000000</i>
   <i name="SMASS">      1.00000000</i>
   <i name="SCALEE">      1.00000000</i>
  </separator>
  <separator name="ionic md" >
   <i name="TEBEG">   1400.00000000</i>
   <i name="TEEND">   1400.00000000</i>
   <i type="int" name="NBLOCK">     1</i>
   <i type="int" name="KBLOCK">  6000</i>
   <i type="int" name="NPACO">   256</i>
   <i name="APACO">     16.00000000</i>
  </separator>
  <separator name="symmetry" >
   <i type="int" name="ISYM">     0</i>
   <i name="SYMPREC">      0.00001000</i>
  </separator>
  <separator name="dos" >
   <i type="int" name="LORBIT">     0</i>
   <v name="RWIGS">     -1.00000000</v>
   <i type="int" name="NEDOS">   301</i>
   <i name="EMIN">     10.00000000</i>
   <i name="EMAX">    -10.00000000</i>
   <i name="EFERMI">      0.00000000</i>
  </separator>
  <separator name="writing" >
   <i type="int" name="NWRITE">     2</i>
   <i type="logical" name="LWAVE"> F  </i>
   <i type="logical" name="LDOWNSAMPLE"> F  </i>
   <i type="logical" name="LCHARG"> F  </i>
   <i type="logical" name="LPARD"> F  </i>
   <i type="logical" name="LVTOT"> F  </i>
   <i type="logical" name="LVHAR"> F  </i>
   <i type="logical" name="LELF"> F  </i>
   <i type="logical" name="LOPTICS"> F  </i>
   <v name="STM">      0.00000000      0.00000000      0.00000000      0.00000000      0.00000000      0.00000000      0.00000000</v>
  </separator>
  <separator name="performance" >
   <i type="int" name="NPAR">     4</i>
   <i type="int" name="NSIM">     4</i>
   <i type="int" name="NBLK">    -1</i>
   <i type="logical" name="LPLANE"> T  </i>
   <i type="logical" name="LSCALAPACK"> T  </i>
   <i type="logical" name="LSCAAWARE"> F  </i>
   <i type="logical" name="LSCALU"> F  </i>
   <i type="logical" name="LASYNC"> F  </i>
   <i type="logical" name="LORBITALREAL"> F  </i>
  </separator>
  <separator name="miscellaneous" >
   <i type="int" name="IDIOT">     3</i>
   <i type="int" name="ISPECIAL">     0</i>
   <i type="logical" name="LMUSIC"> F  </i>
   <v name="POMASS">     63.54600000</v>
   <v name="DARWINR">      0.00000000</v>
   <v name="DARWINV">      1.00000000</v>
   <i type="logical" name="LCORR"> T  </i>
  </separator>
  <i type="logical" name="GGA_COMPAT"> T  </i>
  <i type="logical" name="LBERRY"> F  </i>
  <i type="int" name="ICORELEVEL">     0</i>
  <i type="logical" name="LDAU"> F  </i>
  <i type="int" name="I_CONSTRAINED_M">     0</i>
  <separator name="electronic exchange-correlation" >
   <i type="string" name="GGA">--</i>
   <i type="int" name="VOSKOWN">     0</i>
   <i type="logical" name="LHFCALC"> F  </i>
   <i type="string" name="PRECFOCK"></i>
   <i type="logical" name="LSYMGRAD"> F  </i>
   <i type="logical" name="LHFONE"> F  </i>
   <i type="logical" name="LRHFCALC"> F  </i>
   <i type="logical" name="LTHOMAS"> F  </i>
   <i type="logical" name="LMODELHF"> F  </i>
   <i name="ENCUT4O">     -1.00000000</i>
   <i type="int" name="EXXOEP">     0</i>
   <i type="int" name="FOURORBIT">     0</i>
   <i name="AEXX">      0.00000000</i>
   <i name="HFALPHA">      0.00000000</i>
   <i name="MCALPHA">      0.00000000</i>
   <i name="ALDAX">      1.00000000</i>
   <i name="AGGAX">      1.00000000</i>
   <i name="ALDAC">      1.00000000</i>
   <i name="AGGAC">      1.00000000</i>
   <i type="int" name="NKREDX">     1</i>
   <i type="int" name="NKREDY">     1</i>
   <i type="int" name="NKREDZ">     1</i>
   <i type="logical" name="SHIFTRED"> F  </i>
   <i type="logical" name="ODDONLY"> F  </i>
   <i type="logical" name="EVENONLY"> F  </i>
   <i type="int" name="LMAXFOCK">     0</i>
   <i type="int" name="NMAXFOCKAE">     0</i>
   <i type="logical" name="LFOCKAEDFT"> F  </i>
   <i name="HFSCREEN">      0.00000000</i>
   <i name="HFSCREENC">      0.00000000</i>
   <i type="int" name="NBANDSGWLOW">     0</i>
  </separator>
  <separator name="vdW DFT" >
   <i type="logical" name="LUSE_VDW"> F  </i>
   <i name="Zab_VDW">     -0.84910000</i>
   <i name="PARAM1">      0.12340000</i>
   <i name="PARAM2">      1.00000000</i>
   <i name="PARAM3">      0.00000000</i>
  </separator>
  <separator name="model GW" >
   <i type="int" name="MODEL_GW">     0</i>
   <i name="MODEL_EPS0">      8.05654189</i>
   <i name="MODEL_ALPHA">      1.00000000</i>
  </separator>
  <separator name="linear response parameters" >
   <i type="logical" name="LEPSILON"> F  </i>
   <i type="logical" name="LRPA"> F  </i>
   <i type="logical" name="LNABLA"> F  </i>
   <i type="logical" name="LVEL"> F  </i>
   <i type="int" name="KINTER">     0</i>
   <i name="CSHIFT">      0.10000000</i>
   <i name="OMEGAMAX">     -1.00000000</i>
   <i name="DEG_THRESHOLD">      0.00200000</i>
   <i name="RTIME">     -0.10000000</i>
   <i name="WPLASMAI">      0.00000000</i>
   <v name="DFIELD">      0.00000000      0.00000000      0.00000000</v>
   <v name="WPLASMA">      0.00000000      0.00000000      0.00000000      0.00000000      0.00000000      0.00000000      0.00000000      0.00000000      0.00000000</v>
  </separator>
  <separator name="orbital magnetization" >
   <i type="logical" name="NUCIND"> F  </i>
   <v name="MAGPOS">      0.00000000      0.00000000      0.00000000</v>
   <i type="logical" name="LNICSALL"> T  </i>
   <i type="logical" name="ORBITALMAG"> F  </i>
   <i type="logical" name="LMAGBLOCH"> F  </i>
   <i type="logical" name="LCHIMAG"> F  </i>
   <i type="logical" name="LGAUGE"> T  </i>
   <i type="int" name="MAGATOM">     0</i>
   <v name="MAGDIPOL">      0.00000000      0.00000000      0.00000000</v>
   <v name="AVECCONST">      0.00000000      0.00000000      0.00000000</v>
  </separator>
  <separator name="response functions" >
   <i type="logical" name="LADDER"> F  </i>
   <i type="logical" name="LRPAFORCE"> F  </i>
   <i type="logical" name="LFXC"> F  </i>
   <i type="logical" name="LHARTREE"> T  </i>
   <i type="int" name="IBSE">     0</i>
   <v type="int" name="KPOINT">    -1     0     0     0</v>
   <i type="logical" name="LTCTE"> F  </i>
   <i type="logical" name="LTETE"> F  </i>
   <i type="logical" name="LTRIPLET"> F  </i>
   <i type="logical" name="LFXCEPS"> F  </i>
   <i type="logical" name="LFXHEG"> F  </i>
   <i type="int" name="NATURALO">     2</i>
   <i type="logical" name="L2ORDER"> F  </i>
   <i type="logical" name="LMP2LT"> F  </i>
   <i type="logical" name="LUSEW"> F  </i>
   <i name="ENCUTGW">     -2.00000000</i>
   <i name="ENCUTGWSOFT">     -2.00000000</i>
   <i name="ENCUTLF">     -1.00000000</i>
   <i type="int" name="LMAXMP2">    -1</i>
   <i name="SCISSOR">      0.00000000</i>
   <i type="int" name="NOMEGA">     0</i>
   <i type="int" name="NOMEGAR">     0</i>
   <i type="int" name="NBANDSGW">    -1</i>
   <i type="int" name="NBANDSO">    -1</i>
   <i type="int" name="NBANDSV">    -1</i>
   <i type="int" name="NELM">     1</i>
   <i type="int" name="NELMHF">     1</i>
   <i type="int" name="DIM">     3</i>
   <i type="int" name="ANTIRES">     0</i>
   <i name="OMEGAMAX">    -30.00000000</i>
   <i name="OMEGAMIN">    -30.00000000</i>
   <i name="OMEGATL">   -200.00000000</i>
   <i type="int" name="OMEGAGRID">   140</i>
   <i name="CSHIFT">     -0.10000000</i>
   <i type="logical" name="SELFENERGY"> F  </i>
   <i type="logical" name="LSPECTRAL"> F  </i>
   <i type="logical" name="LSPECTRALGW"> F  </i>
   <i type="logical" name="LSINGLES"> F  </i>
   <i type="logical" name="LFERMIGW"> F  </i>
   <i type="logical" name="ODDONLYGW"> F  </i>
   <i type="logical" name="EVENONLYGW"> F  </i>
   <i type="int" name="NKREDLFX">     1</i>
   <i type="int" name="NKREDLFY">     1</i>
   <i type="int" name="NKREDLFZ">     1</i>
   <i type="int" name="MAXMEM">  2800</i>
   <i type="int" name="TELESCOPE">     0</i>
   <i type="int" name="TAUPAR">     1</i>
   <i type="int" name="OMEGAPAR">    -1</i>
   <i name="LAMBDA">      1.00000000</i>
  </separator>
  <separator name="External order field" >
   <i name="OFIELD_KAPPA">      0.00000000</i>
   <v name="OFIELD_K">      0.00000000      0.00000000      0.00000000</v>
   <i name="OFIELD_Q6_NEAR">      0.00000000</i>
   <i name="OFIELD_Q6_FAR">      0.00000000</i>
   <i name="OFIELD_A">      0.00000000</i>
  </separator>
 </parameters>
 <atominfo>
  <atoms>     125 </atoms>
  <types>       1 </types>
  <array name="atoms" >
   <dimension dim="1">ion</dimension>
   <field type="string">element</field>
   <field type="int">atomtype</field>
   <set>
    <rc><c>Cu</c><c>   1</c></rc>
    <rc><c>Cu</c><c>   1</c></rc>
    <rc><c>Cu</c><c>   1</c></rc>
    <rc><c>Cu</c><c>   1</c></rc>
    <rc><c>Cu</c><c>   1</c></rc>
    <rc><c>Cu</c><c>   1</c></rc>
    <rc><c>Cu</c><c>   1</c></rc>
    <rc><c>Cu</c><c>   1</c></rc>
    <rc><c>Cu</c><c>   1</c></rc>
    <rc><c>Cu</c><c>   1</c></rc>
    <rc><c>Cu</c><c>   1</c></rc>
    <rc><c>Cu</c><c>   1</c></rc>
    <rc><c>Cu</c><c>   1</c></rc>
    <rc><c>Cu</c><c>   1</c></rc>
    <rc><c>Cu</c><c>   1</c></rc>
    <rc><c>Cu</c><c>   1</c></rc>
    <rc><c>Cu</c><c>   1</c></rc>
    <rc><c>Cu</c><c>   1</c></rc>
    <rc><c>Cu</c><c>   1</c></rc>
    <rc><c>Cu</c><c>   1</c></rc>
    <rc><c>Cu</c><c>   1</c></rc>
    <rc><c>Cu</c><c>   1</c></rc>
    <rc><c>Cu</c><c>   1</c></rc>
    <rc><c>Cu</c><c>   1</c></rc>
    <rc><c>Cu</c><c>   1</c></rc>
    <rc><c>Cu</c><c>   1</c></rc>
    <rc><c>Cu</c><c>   1</c></rc>
    <rc><c>Cu</c><c>   1</c></rc>
    <rc><c>Cu</c><c>   1</c></rc>
    <rc><c>Cu</c><c>   1</c></rc>
    <rc><c>Cu</c><c>   1</c></rc>
    <rc><c>Cu</c><c>   1</c></rc>
    <rc><c>Cu</c><c>   1</c></rc>
    <rc><c>Cu</c><c>   1</c></rc>
    <rc><c>Cu</c><c>   1</c></rc>
    <rc><c>Cu</c><c>   1</c></rc>
    <rc><c>Cu</c><c>   1</c></rc>
    <rc><c>Cu</c><c>   1</c></rc>
    <rc><c>Cu</c><c>   1</c></rc>
    <rc><c>Cu</c><c>   1</c></rc>
    <rc><c>Cu</c><c>   1</c></rc>
    <rc><c>Cu</c><c>   1</c></rc>
    <rc><c>Cu</c><c>   1</c></rc>
    <rc><c>Cu</c><c>   1</c></rc>
    <rc><c>Cu</c><c>   1</c></rc>
    <rc><c>Cu</c><c>   1</c></rc>
    <rc><c>Cu</c><c>   1</c></rc>
    <rc><c>Cu</c><c>   1</c></rc>
    <rc><c>Cu</c><c>   1</c></rc>
    <rc><c>Cu</c><c>   1</c></rc>
    <rc><c>Cu</c><c>   1</c></rc>
    <rc><c>Cu</c><c>   1</c></rc>
    <rc><c>Cu</c><c>   1</c></rc>
    <rc><c>Cu</c><c>   1</c></rc>
    <rc><c>Cu</c><c>   1</c></rc>
    <rc><c>Cu</c><c>   1</c></rc>
    <rc><c>Cu</c><c>   1</c></rc>
    <rc><c>Cu</c><c>   1</c></rc>
    <rc><c>Cu</c><c>   1</c></rc>
    <rc><c>Cu</c><c>   1</c></rc>
    <rc><c>Cu</c><c>   1</c></rc>
    <rc><c>Cu</c><c>   1</c></rc>
    <rc><c>Cu</c><c>   1</c></rc>
    <rc><c>Cu</c><c>   1</c></rc>
    <rc><c>Cu</c><c>   1</c></rc>
    <rc><c>Cu</c><c>   1</c></rc>
    <rc><c>Cu</c><c>   1</c></rc>
    <rc><c>Cu</c><c>   1</c></rc>
    <rc><c>Cu</c><c>   1</c></rc>
    <rc><c>Cu</c><c>   1</c></rc>
    <rc><c>Cu</c><c>   1</c></rc>
    <rc><c>Cu</c><c>   1</c></rc>
    <rc><c>Cu</c><c>   1</c></rc>
    <rc><c>Cu</c><c>   1</c></rc>
    <rc><c>Cu</c><c>   1</c></rc>
    <rc><c>Cu</c><c>   1</c></rc>
    <rc><c>Cu</c><c>   1</c></rc>
    <rc><c>Cu</c><c>   1</c></rc>
    <rc><c>Cu</c><c>   1</c></rc>
    <rc><c>Cu</c><c>   1</c></rc>
    <rc><c>Cu</c><c>   1</c></rc>
    <rc><c>Cu</c><c>   1</c></rc>
    <rc><c>Cu</c><c>   1</c></rc>
    <rc><c>Cu</c><c>   1</c></rc>
    <rc><c>Cu</c><c>   1</c></rc>
    <rc><c>Cu</c><c>   1</c></rc>
    <rc><c>Cu</c><c>   1</c></rc>
    <rc><c>Cu</c><c>   1</c></rc>
    <rc><c>Cu</c><c>   1</c></rc>
    <rc><c>Cu</c><c>   1</c></rc>
    <rc><c>Cu</c><c>   1</c></rc>
    <rc><c>Cu</c><c>   1</c></rc>
    <rc><c>Cu</c><c>   1</c></rc>
    <rc><c>Cu</c><c>   1</c></rc>
    <rc><c>Cu</c><c>   1</c></rc>
    <rc><c>Cu</c><c>   1</c></rc>
    <rc><c>Cu</c><c>   1</c></rc>
    <rc><c>Cu</c><c>   1</c></rc>
    <rc><c>Cu</c><c>   1</c></rc>
    <rc><c>Cu</c><c>   1</c></rc>
    <rc><c>Cu</c><c>   1</c></rc>
    <rc><c>Cu</c><c>   1</c></rc>
    <rc><c>Cu</c><c>   1</c></rc>
    <rc><c>Cu</c><c>   1</c></rc>
    <rc><c>Cu</c><c>   1</c></rc>
    <rc><c>Cu</c><c>   1</c></rc>
    <rc><c>Cu</c><c>   1</c></rc>
    <rc><c>Cu</c><c>   1</c></rc>
    <rc><c>Cu</c><c>   1</c></rc>
    <rc><c>Cu</c><c>   1</c></rc>
    <rc><c>Cu</c><c>   1</c></rc>
    <rc><c>Cu</c><c>   1</c></rc>
    <rc><c>Cu</c><c>   1</c></rc>
    <rc><c>Cu</c><c>   1</c></rc>
    <rc><c>Cu</c><c>   1</c></rc>
    <rc><c>Cu</c><c>   1</c></rc>
    <rc><c>Cu</c><c>   1</c></rc>
    <rc><c>Cu</c><c>   1</c></rc>
    <rc><c>Cu</c><c>   1</c></rc>
    <rc><c>Cu</c><c>   1</c></rc>
    <rc><c>Cu</c><c>   1</c></rc>
    <rc><c>Cu</c><c>   1</c></rc>
    <rc><c>Cu</c><c>   1</c></rc>
    <rc><c>Cu</c><c>   1</c></rc>
    <rc><c>Cu</c><c>   1</c></rc>
   </set>
  </array>
  <array name="atomtypes" >
   <dimension dim="1">type</dimension>
   <field type="int">atomspertype</field>
   <field type="string">element</field>
   <field>mass</field>
   <field>valence</field>
   <field type="string">pseudopotential</field>
   <set>
    <rc><c> 125</c><c>Cu</c><c>     63.54600000</c><c>     11.00000000</c><c>  PAW_PBE Cu 22Jun2005                  </c></rc>
   </set>
  </array>
 </atominfo>
 <structure name="initialpos" >
  <crystal>
   <varray name="basis" >
    <v>      11.88417789       0.00000000       0.00000000 </v>
    <v>       0.00000000      11.88417789       0.00000000 </v>
    <v>       0.00000000       0.00000000      11.88417789 </v>
   </varray>
   <i name="volume">   1678.44622616 </i>
   <varray name="rec_basis" >
    <v>       0.08414549      -0.00000000       0.00000000 </v>
    <v>       0.00000000       0.08414549       0.00000000 </v>
    <v>      -0.00000000      -0.00000000       0.08414549 </v>
   </varray>
  </crystal>
  <varray name="positions" >
   <v>       0.64206804       0.03995486       0.04100646 </v>
   <v>       0.09278303       0.13419658       0.42175838 </v>
   <v>       0.78523330       0.34656406       0.58589807 </v>
   <v>       0.96279341       0.13707734       0.83443568 </v>
   <v>       0.93295182       0.06223294       0.02738119 </v>
   <v>       0.90492799       0.26388277       0.02525686 </v>
   <v>       0.02580215       0.17092789       0.19863044 </v>
   <v>       0.94654075       0.23941349       0.49404821 </v>
   <v>       0.23508736       0.22690589       0.28299791 </v>
   <v>       0.98506468       0.32821845       0.65435219 </v>
   <v>       0.87422857       0.45683836       0.93733358 </v>
   <v>       0.97816326       0.52962625       0.28421587 </v>
   <v>       0.13121502       0.57658135       0.36867058 </v>
   <v>       0.98887872       0.51948746       0.78395200 </v>
   <v>       0.15848280       0.63914336       0.66626494 </v>
   <v>       0.84982333       0.70024949       0.89760923 </v>
   <v>       0.86361852       0.74474903       0.09265761 </v>
   <v>       0.28741044       0.67482153       0.23764239 </v>
   <v>       0.53155306       0.49693344       0.38867852 </v>
   <v>       0.07976673       0.75064296       0.52043938 </v>
   <v>       0.27056297       0.99972384       0.25212044 </v>
   <v>       0.09793376       0.98709669       0.29997662 </v>
   <v>       0.00694155       0.02432320       0.59429760 </v>
   <v>       0.96916447       0.73323072       0.67897710 </v>
   <v>       0.97551924       0.87884660       0.95959071 </v>
   <v>       0.17234832       0.89328296       0.93479802 </v>
   <v>       0.08790637       0.00590897       0.11709836 </v>
   <v>       0.13589539       0.22881700       0.59666618 </v>
   <v>       0.95454585       0.94558022       0.76437207 </v>
   <v>       0.14286420       0.84437462       0.67857739 </v>
   <v>       0.08851591       0.17114721       0.99187573 </v>
   <v>       0.24133350       0.95818754       0.50486035 </v>
   <v>       0.84705917       0.18138337       0.67200912 </v>
   <v>       0.26448091       0.15217815       0.48563724 </v>
   <v>       0.31921692       0.38163425       0.38427093 </v>
   <v>       0.14052283       0.33739868       0.11468398 </v>
   <v>       0.25123849       0.13196463       0.11039766 </v>
   <v>       0.46530463       0.21480490       0.22464678 </v>
   <v>       0.33579329       0.57793684       0.40432650 </v>
   <v>       0.20424239       0.39957835       0.73286975 </v>
   <v>       0.07706463       0.75711022       0.09710832 </v>
   <v>       0.32464088       0.49633861       0.18742180 </v>
   <v>       0.10830944       0.53376772       0.13860037 </v>
   <v>       0.44044872       0.32740849       0.60604369 </v>
   <v>       0.99326540       0.59975585       0.00311153 </v>
   <v>       0.07516741       0.74240222       0.84049061 </v>
   <v>       0.38845469       0.84186420       0.30347047 </v>
   <v>       0.28200161       0.72640329       0.51334847 </v>
   <v>       0.25881713       0.74183135       0.83068068 </v>
   <v>       0.51558473       0.65402902       0.84726473 </v>
   <v>       0.42874912       0.82252485       0.94915828 </v>
   <v>       0.49899477       0.87631728       0.15470560 </v>
   <v>       0.34544537       0.92068163       0.78384118 </v>
   <v>       0.41614292       0.52194570       0.56860932 </v>
   <v>       0.45245530       0.05624038       0.58049545 </v>
   <v>       0.46230206       0.06337517       0.07683561 </v>
   <v>       0.27040910       0.37477059       0.92757150 </v>
   <v>       0.59445313       0.26158206       0.11108915 </v>
   <v>       0.13042165       0.00572126       0.75100091 </v>
   <v>       0.28209455       0.10754685       0.94243713 </v>
   <v>       0.16182735       0.21330788       0.79995564 </v>
   <v>       0.15136678       0.53870983       0.86702249 </v>
   <v>       0.60650591       0.06736127       0.26902878 </v>
   <v>       0.29700241       0.12896412       0.68997572 </v>
   <v>       0.40822285       0.44526930       0.76150401 </v>
   <v>       0.02776928       0.33762997       0.91352466 </v>
   <v>       0.23380753       0.66528815       0.03350567 </v>
   <v>       0.14606042       0.44654975       0.54915571 </v>
   <v>       0.68141392       0.71394334       0.79990469 </v>
   <v>       0.33295140       0.56677941       0.90766784 </v>
   <v>       0.42582638       0.06001482       0.34852276 </v>
   <v>       0.75004549       0.20179938       0.97778984 </v>
   <v>       0.38175484       0.65631501       0.69205330 </v>
   <v>       0.47881008       0.71053015       0.50504199 </v>
   <v>       0.49168157       0.79873699       0.70699441 </v>
   <v>       0.72224482       0.93507631       0.18423182 </v>
   <v>       0.90468723       0.08207892       0.35016994 </v>
   <v>       0.45699892       0.90379992       0.48903426 </v>
   <v>       0.57882053       0.85173420       0.35396262 </v>
   <v>       0.61646046       0.01805679       0.70337823 </v>
   <v>       0.37862445       0.24705814       0.03666900 </v>
   <v>       0.75478673       0.36329560       0.09012863 </v>
   <v>       0.60773643       0.01579746       0.49188182 </v>
   <v>       0.47062929       0.23409727       0.41827778 </v>
   <v>       0.40046674       0.26208731       0.78442344 </v>
   <v>       0.53124219       0.09565542       0.86279321 </v>
   <v>       0.51817500       0.42011203       0.20505323 </v>
   <v>       0.78378467       0.20859992       0.21957685 </v>
   <v>       0.62811751       0.30880739       0.34131842 </v>
   <v>       0.58902861       0.40906532       0.71892010 </v>
   <v>       0.67652840       0.74398169       0.17118908 </v>
   <v>       0.27999747       0.84387033       0.11932978 </v>
   <v>       0.77491762       0.56009005       0.22693928 </v>
   <v>       0.80612242       0.62214636       0.58700492 </v>
   <v>       0.51356304       0.50547526       0.01084536 </v>
   <v>       0.45663919       0.68155993       0.09735264 </v>
   <v>       0.81989536       0.78456784       0.29633619 </v>
   <v>       0.54258236       0.63212108       0.25521702 </v>
   <v>       0.61466085       0.59736030       0.64190362 </v>
   <v>       0.78807207       0.94108200       0.96417054 </v>
   <v>       0.60246874       0.88087291       0.83624509 </v>
   <v>       0.06845177       0.78222259       0.29682381 </v>
   <v>       0.75921188       0.97829073       0.36499197 </v>
   <v>       0.77863204       0.99825291       0.58581023 </v>
   <v>       0.73075354       0.47831908       0.42660916 </v>
   <v>       0.61555726       0.18432681       0.63690621 </v>
   <v>       0.97258653       0.90371410       0.42718869 </v>
   <v>       0.73915773       0.17933862       0.45469094 </v>
   <v>       0.98653272       0.56204013       0.58679344 </v>
   <v>       0.76163028       0.34853955       0.80726616 </v>
   <v>       0.56841913       0.31881375       0.90983918 </v>
   <v>       0.04876246       0.32864970       0.34926350 </v>
   <v>       0.82734438       0.31341958       0.36215225 </v>
   <v>       0.61659765       0.37272506       0.52728737 </v>
   <v>       0.78093709       0.54504031       0.77210696 </v>
   <v>       0.70743223       0.59088606       0.99023834 </v>
   <v>       0.92372873       0.37073223       0.18109558 </v>
   <v>       0.67432540       0.66078248       0.42679834 </v>
   <v>       0.90759845       0.63005678       0.41946065 </v>
   <v>       0.63002813       0.76007921       0.98558807 </v>
   <v>       0.94843955       0.89420874       0.17373524 </v>
   <v>       0.83943393       0.79879383       0.50214626 </v>
   <v>       0.63529139       0.82414061       0.55864591 </v>
   <v>       0.77391122       0.85533547       0.70339053 </v>
   <v>       0.73993346       0.10417954       0.81460401 </v>
  </varray>
  <varray name="velocities" >
   <v>      -0.00101477      -0.00026839       0.00043280 </v>
   <v>       0.00039321      -0.00126608       0.00039894 </v>
   <v>       0.00035106      -0.00099478      -0.00060892 </v>
   <v>       0.00041919      -0.00033477       0.00068630 </v>
   <v>      -0.00021060      -0.00022537      -0.00074887 </v>
   <v>       0.00041370      -0.00024867       0.00180662 </v>
   <v>      -0.00165563       0.00100183      -0.00078707 </v>
   <v>       0.00041530       0.00131357      -0.00091277 </v>
   <v>       0.00010112       0.00143025       0.00039715 </v>
   <v>      -0.00071930       0.00225787       0.00010875 </v>
   <v>      -0.00043610      -0.00172859      -0.00047352 </v>
   <v>       0.00044101      -0.00016157      -0.00030744 </v>
   <v>       0.00009329       0.00137542       0.00178955 </v>
   <v>       0.00018084       0.00025633       0.00134415 </v>
   <v>      -0.00148464       0.00047186       0.00138599 </v>
   <v>       0.00009813       0.00034255      -0.00126944 </v>
   <v>      -0.00144140      -0.00139267       0.00061915 </v>
   <v>       0.00010250      -0.00159359       0.00091449 </v>
   <v>       0.00141576       0.00030275      -0.00096575 </v>
   <v>      -0.00054829       0.00096991       0.00036194 </v>
   <v>      -0.00032134       0.00181534       0.00153155 </v>
   <v>       0.00072793      -0.00070433      -0.00045866 </v>
   <v>       0.00005329      -0.00013995       0.00205833 </v>
   <v>       0.00056542      -0.00026048      -0.00053380 </v>
   <v>       0.00187303       0.00125910       0.00037415 </v>
   <v>      -0.00042964       0.00134904      -0.00111710 </v>
   <v>       0.00016611       0.00115124       0.00185637 </v>
   <v>       0.00128362       0.00023042      -0.00016062 </v>
   <v>      -0.00120319      -0.00101694      -0.00010789 </v>
   <v>      -0.00009551      -0.00190980      -0.00169452 </v>
   <v>      -0.00037941      -0.00014605      -0.00176179 </v>
   <v>       0.00034312      -0.00107701      -0.00181734 </v>
   <v>       0.00092880       0.00067183       0.00042351 </v>
   <v>       0.00063133       0.00157301      -0.00048310 </v>
   <v>      -0.00004605       0.00003930       0.00048034 </v>
   <v>      -0.00022773       0.00073499      -0.00123539 </v>
   <v>       0.00076922      -0.00025737      -0.00043801 </v>
   <v>       0.00010820      -0.00092765       0.00077960 </v>
   <v>      -0.00106418       0.00184396      -0.00141375 </v>
   <v>       0.00137961       0.00010377      -0.00099708 </v>
   <v>       0.00029325      -0.00144957      -0.00131640 </v>
   <v>       0.00175605       0.00048740       0.00032471 </v>
   <v>       0.00005495       0.00119774       0.00116189 </v>
   <v>       0.00095514       0.00075220      -0.00040541 </v>
   <v>       0.00042062       0.00008067       0.00029332 </v>
   <v>       0.00025001      -0.00012666       0.00151706 </v>
   <v>      -0.00161148       0.00153041       0.00180412 </v>
   <v>      -0.00056368       0.00021360      -0.00037156 </v>
   <v>       0.00115803      -0.00034441      -0.00018242 </v>
   <v>      -0.00068465      -0.00143971       0.00059466 </v>
   <v>      -0.00091785       0.00128600       0.00148589 </v>
   <v>       0.00031606       0.00016990      -0.00037603 </v>
   <v>      -0.00033502       0.00091102      -0.00026250 </v>
   <v>      -0.00053724      -0.00092907      -0.00122050 </v>
   <v>      -0.00023623      -0.00139559       0.00000723 </v>
   <v>       0.00119291       0.00176469       0.00008225 </v>
   <v>       0.00225267      -0.00095853       0.00033695 </v>
   <v>       0.00023269      -0.00044029      -0.00005603 </v>
   <v>      -0.00035795      -0.00125936       0.00004758 </v>
   <v>       0.00183017      -0.00164822      -0.00071319 </v>
   <v>      -0.00110899       0.00136809       0.00144023 </v>
   <v>       0.00056304      -0.00102884      -0.00058518 </v>
   <v>       0.00171291      -0.00105725      -0.00225030 </v>
   <v>      -0.00109087      -0.00058054       0.00090762 </v>
   <v>      -0.00234040       0.00028060       0.00004185 </v>
   <v>      -0.00023105      -0.00029516      -0.00017224 </v>
   <v>      -0.00005782      -0.00100733      -0.00173411 </v>
   <v>      -0.00130679      -0.00144512      -0.00024741 </v>
   <v>      -0.00153829       0.00020356      -0.00000442 </v>
   <v>      -0.00032845       0.00042294      -0.00005994 </v>
   <v>       0.00092032       0.00084798      -0.00079876 </v>
   <v>      -0.00141696      -0.00215583      -0.00017925 </v>
   <v>       0.00037638      -0.00234953       0.00010012 </v>
   <v>       0.00092683      -0.00013205       0.00143228 </v>
   <v>       0.00038757       0.00175261      -0.00089993 </v>
   <v>       0.00058648       0.00049134      -0.00005465 </v>
   <v>      -0.00063328       0.00027129       0.00014745 </v>
   <v>      -0.00121876      -0.00064218       0.00070455 </v>
   <v>      -0.00053747      -0.00155388      -0.00052948 </v>
   <v>       0.00060128       0.00131778      -0.00110841 </v>
   <v>       0.00283335       0.00279705      -0.00057958 </v>
   <v>      -0.00106434      -0.00078023       0.00004744 </v>
   <v>      -0.00184894       0.00142763       0.00157874 </v>
   <v>       0.00036397      -0.00229743       0.00012016 </v>
   <v>      -0.00022630       0.00251445      -0.00224639 </v>
   <v>       0.00150619      -0.00016021       0.00123537 </v>
   <v>       0.00095937       0.00035249       0.00136589 </v>
   <v>       0.00202957       0.00094956      -0.00048642 </v>
   <v>       0.00199328       0.00030553      -0.00258849 </v>
   <v>       0.00089369       0.00128576       0.00118082 </v>
   <v>      -0.00035628       0.00080432       0.00164606 </v>
   <v>      -0.00137078       0.00166946      -0.00017259 </v>
   <v>       0.00093179      -0.00141722      -0.00046963 </v>
   <v>      -0.00090444      -0.00073503       0.00117334 </v>
   <v>       0.00127151      -0.00201828       0.00191792 </v>
   <v>       0.00086470       0.00099357      -0.00012478 </v>
   <v>       0.00071261       0.00123644       0.00123698 </v>
   <v>       0.00092568       0.00074049       0.00043689 </v>
   <v>      -0.00132108      -0.00074247      -0.00097445 </v>
   <v>      -0.00020642      -0.00063808       0.00110918 </v>
   <v>       0.00018972       0.00104856       0.00143829 </v>
   <v>      -0.00073957      -0.00094733       0.00147414 </v>
   <v>       0.00158682       0.00090940      -0.00191473 </v>
   <v>       0.00067768      -0.00000246       0.00060593 </v>
   <v>      -0.00205500      -0.00060673       0.00000776 </v>
   <v>      -0.00106829       0.00114272       0.00199958 </v>
   <v>       0.00027636      -0.00049633      -0.00151273 </v>
   <v>      -0.00026847      -0.00044358       0.00004787 </v>
   <v>       0.00052371      -0.00012299      -0.00117433 </v>
   <v>      -0.00040400      -0.00095167       0.00024683 </v>
   <v>      -0.00043344      -0.00194449      -0.00004830 </v>
   <v>      -0.00056873      -0.00073715      -0.00051741 </v>
   <v>       0.00056384      -0.00267553       0.00004540 </v>
   <v>      -0.00273801      -0.00022033       0.00000053 </v>
   <v>      -0.00184963       0.00000701      -0.00237940 </v>
   <v>      -0.00220514      -0.00036691      -0.00126073 </v>
   <v>      -0.00074925      -0.00073425      -0.00026927 </v>
   <v>      -0.00096871      -0.00035694      -0.00113803 </v>
   <v>       0.00187256       0.00098055       0.00071853 </v>
   <v>      -0.00076475      -0.00011314       0.00032208 </v>
   <v>       0.00074673       0.00105547      -0.00081044 </v>
   <v>      -0.00023501       0.00055012       0.00040114 </v>
   <v>      -0.00230780      -0.00147826      -0.00056442 </v>
   <v>       0.00039547       0.00148143       0.00012265 </v>
   <v>       0.00082462      -0.00021594       0.00039414 </v>
  </varray>
 </structure>
 <calculation>
  <scstep>
   <time name="diag">    2.00    2.00</time>
   <time name="diis">    2.21    2.21</time>
   <time name="orth">    0.86    0.86</time>
   <time name="total">    5.11    5.12</time>
   <energy>
    <i name="alphaZ">   6808.08261835 </i>
    <i name="ewald">-127287.79937829 </i>
    <i name="hartreedc"> -53072.81763480 </i>
    <i name="XCdc">   5699.83488985 </i>
    <i name="pawpsdc"> 153525.83248478 </i>
    <i name="pawaedc">-166756.05839077 </i>
    <i name="eentropy">     -1.63171703 </i>
    <i name="bandstr">  16443.63949492 </i>
    <i name="atom"> 173869.70502497 </i>
    <i name="e_fr_energy">   9228.78739198 </i>
    <i name="e_wo_entrp">   9230.41910901 </i>
    <i name="e_0_energy">   9229.60325050 </i>
   </energy>
  </scstep>
  <scstep>
   <time name="diag">    1.99    1.99</time>
   <time name="diis">    2.19    2.19</time>
   <time name="orth">    0.87    0.87</time>
   <time name="total">    5.04    5.05</time>
   <energy>
    <i name="e_fr_energy">   1293.22417598 </i>
    <i name="e_wo_entrp">   1293.63730243 </i>
    <i name="e_0_energy">   1293.43073920 </i>
   </energy>
  </scstep>
  <scstep>
   <time name="diag">    2.01    2.01</time>
   <time name="diis">    2.15    2.16</time>
   <time name="orth">    0.86    0.87</time>
   <time name="total">    5.03    5.03</time>
   <energy>
    <i name="e_fr_energy">    135.79330424 </i>
    <i name="e_wo_entrp">    136.40209525 </i>
    <i name="e_0_energy">    136.09769975 </i>
   </energy>
  </scstep>
  <scstep>
   <time name="diag">    2.02    2.02</time>
   <time name="diis">    2.16    2.16</time>
   <time name="orth">    0.87    0.88</time>
   <time name="total">    5.05    5.06</time>
   <energy>
    <i name="e_fr_energy">   -356.28644020 </i>
    <i name="e_wo_entrp">   -355.80690516 </i>
    <i name="e_0_energy">   -356.04667268 </i>
   </energy>
  </scstep>
  <scstep>
   <time name="diag">    2.00    2.00</time>
   <time name="diis">    2.14    2.14</time>
   <time name="orth">    0.88    0.88</time>
   <time name="total">    5.02    5.02</time>
   <energy>
    <i name="e_fr_energy">   -453.65761067 </i>
    <i name="e_wo_entrp">   -453.12004256 </i>
    <i name="e_0_energy">   -453.38882662 </i>
   </energy>
  </scstep>
  <scstep>
   <time name="diag">    2.02    2.02</time>
   <time name="diis">    2.15    2.16</time>
   <time name="orth">    0.87    0.87</time>
   <time name="total">    5.04    5.04</time>
   <energy>
    <i name="e_fr_energy">   -489.78647479 </i>
    <i name="e_wo_entrp">   -489.33459722 </i>
    <i name="e_0_energy">   -489.56053600 </i>
   </energy>
  </scstep>
  <scstep>
   <time name="diag">    2.02    2.02</time>
   <time name="diis">    2.18    2.19</time>
   <time name="orth">    0.87    0.87</time>
   <time name="total">    5.07    5.08</time>
   <energy>
    <i name="e_fr_energy">   -503.02280593 </i>
    <i name="e_wo_entrp">   -502.57955662 </i>
    <i name="e_0_energy">   -502.80118127 </i>
   </energy>
  </scstep>
  <scstep>
   <time name="diag">    2.01    2.01</time>
   <time name="diis">    2.16    2.16</time>
   <time name="orth">    0.87    0.87</time>
   <time name="total">    5.03    5.04</time>
   <energy>
    <i name="e_fr_energy">   -508.47470398 </i>
    <i name="e_wo_entrp">   -508.03340707 </i>
    <i name="e_0_energy">   -508.25405553 </i>
   </energy>
  </scstep>
  <scstep>
   <time name="diag">    2.02    2.02</time>
   <time name="diis">    5.03    5.04</time>
   <time name="orth">    0.87    0.87</time>
   <time name="total">    7.92    7.93</time>
   <energy>
    <i name="e_fr_energy">   -512.04271551 </i>
    <i name="e_wo_entrp">   -511.60287466 </i>
    <i name="e_0_energy">   -511.82279508 </i>
   </energy>
  </scstep>
  <scstep>
   <time name="diag">    2.01    2.01</time>
   <time name="diis">    4.80    4.81</time>
   <time name="orth">    0.87    0.87</time>
   <time name="total">    7.69    7.69</time>
   <energy>
    <i name="e_fr_energy">   -512.49013302 </i>
    <i name="e_wo_entrp">   -512.05073209 </i>
    <i name="e_0_energy">   -512.27043256 </i>
   </energy>
  </scstep>
  <scstep>
   <time name="diag">    2.01    2.02</time>
   <time name="diis">    4.75    4.75</time>
   <time name="orth">    0.89    0.89</time>
   <time name="total">    7.65    7.66</time>
   <energy>
    <i name="e_fr_energy">   -512.49600867 </i>
    <i name="e_wo_entrp">   -512.05659346 </i>
    <i name="e_0_energy">   -512.27630107 </i>
   </energy>
  </scstep>
  <scstep>
   <time name="diag">    2.01    2.01</time>
   <time name="diis">    4.39    4.40</time>
   <time name="orth">    0.87    0.87</time>
   <time name="total">    7.46    7.47</time>
   <energy>
    <i name="e_fr_energy">   -512.49626130 </i>
    <i name="e_wo_entrp">   -512.05684629 </i>
    <i name="e_0_energy">   -512.27655379 </i>
   </energy>
  </scstep>
  <scstep>
   <time name="diag">    2.02    2.02</time>
   <time name="diis">    4.01    4.01</time>
   <time name="orth">    0.88    0.88</time>
   <time name="total">    7.14    7.15</time>
   <energy>
    <i name="e_fr_energy">   -461.42976627 </i>
    <i name="e_wo_entrp">   -461.17786034 </i>
    <i name="e_0_energy">   -461.30381330 </i>
   </energy>
  </scstep>
  <scstep>
   <time name="diag">    2.01    2.02</time>
   <time name="diis">    4.00    4.00</time>
   <time name="orth">    0.88    0.88</time>
   <time name="total">    7.12    7.13</time>
   <energy>
    <i name="e_fr_energy">   -415.30380008 </i>
    <i name="e_wo_entrp">   -414.97624582 </i>
    <i name="e_0_energy">   -415.14002295 </i>
   </energy>
  </scstep>
  <scstep>
   <time name="diag">    2.00    2.00</time>
   <time name="diis">    4.05    4.05</time>
   <time name="orth">    0.89    0.89</time>
   <time name="total">    7.16    7.17</time>
   <energy>
    <i name="e_fr_energy">   -414.96308021 </i>
    <i name="e_wo_entrp">   -414.62362046 </i>
    <i name="e_0_energy">   -414.79335034 </i>
   </energy>
  </scstep>
  <scstep>
   <time name="diag">    2.01    2.01</time>
   <time name="diis">    4.05    4.05</time>
   <time name="orth">    0.87    0.88</time>
   <time name="total">    7.18    7.19</time>
   <energy>
    <i name="e_fr_energy">   -414.29376429 </i>
    <i name="e_wo_entrp">   -413.95459847 </i>
    <i name="e_0_energy">   -414.12418138 </i>
   </energy>
  </scstep>
  <scstep>
   <time name="diag">    2.02    2.02</time>
   <time name="diis">    4.14    4.14</time>
   <time name="orth">    0.89    0.89</time>
   <time name="total">    7.27    7.28</time>
   <energy>
    <i name="e_fr_energy">   -414.21461324 </i>
    <i name="e_wo_entrp">   -413.87833073 </i>
    <i name="e_0_energy">   -414.04647199 </i>
   </energy>
  </scstep>
  <scstep>
   <time name="diag">    2.03    2.03</time>
   <time name="diis">    4.07    4.08</time>
   <time name="orth">    0.87    0.87</time>
   <time name="total">    7.20    7.21</time>
   <energy>
    <i name="e_fr_energy">   -414.17244934 </i>
    <i name="e_wo_entrp">   -413.83618350 </i>
    <i name="e_0_energy">   -414.00431642 </i>
   </energy>
  </scstep>
  <scstep>
   <time name="diag">    2.03    2.03</time>
   <time name="diis">    4.04    4.05</time>
   <time name="orth">    0.87    0.87</time>
   <time name="total">    7.18    7.18</time>
   <energy>
    <i name="e_fr_energy">   -414.16918745 </i>
    <i name="e_wo_entrp">   -413.83410799 </i>
    <i name="e_0_energy">   -414.00164772 </i>
   </energy>
  </scstep>
  <scstep>
   <time name="diag">    2.00    2.01</time>
   <time name="diis">    4.07    4.08</time>
   <time name="orth">    0.87    0.87</time>
   <time name="total">    7.18    7.18</time>
   <energy>
    <i name="e_fr_energy">   -414.16728769 </i>
    <i name="e_wo_entrp">   -413.83193341 </i>
    <i name="e_0_energy">   -413.99961055 </i>
   </energy>
  </scstep>
  <scstep>
   <time name="diag">    2.02    2.03</time>
   <time name="diis">    4.04    4.05</time>
   <time name="orth">    0.87    0.87</time>
   <time name="total">    7.17    7.18</time>
   <energy>
    <i name="e_fr_energy">   -414.16743591 </i>
    <i name="e_wo_entrp">   -413.83240462 </i>
    <i name="e_0_energy">   -413.99992026 </i>
   </energy>
  </scstep>
  <scstep>
   <time name="diag">    2.03    2.03</time>
   <time name="diis">    4.06    4.07</time>
   <time name="orth">    0.87    0.88</time>
   <time name="total">    7.20    7.21</time>
   <energy>
    <i name="e_fr_energy">   -414.16728244 </i>
    <i name="e_wo_entrp">   -413.83205620 </i>
    <i name="e_0_energy">   -413.99966932 </i>
   </energy>
  </scstep>
  <scstep>
   <time name="diag">    2.01    2.01</time>
   <time name="diis">    4.01    4.01</time>
   <time name="orth">    0.89    0.89</time>
   <time name="total">    7.13    7.18</time>
   <energy>
    <i name="e_fr_energy">   -414.16726398 </i>
    <i name="e_wo_entrp">   -413.83212678 </i>
    <i name="e_0_energy">   -413.99969538 </i>
   </energy>
  </scstep>
  <scstep>
   <time name="diag">    2.02    2.02</time>
   <time name="diis">    2.39    2.40</time>
   <time name="orth">    0.89    0.89</time>
   <time name="total">    5.53    5.54</time>
   <energy>
    <i name="e_fr_energy">   -414.16724185 </i>
    <i name="e_wo_entrp">   -413.83206568 </i>
    <i name="e_0_energy">   -413.99965376 </i>
   </energy>
  </scstep>
  <scstep>
   <time name="diag">    2.01    2.01</time>
   <time name="diis">    2.31    2.31</time>
   <time name="orth">    0.88    0.88</time>
   <time name="total">    5.45    5.45</time>
   <energy>
    <i name="e_fr_energy">   -414.16722907 </i>
    <i name="e_wo_entrp">   -413.83206271 </i>
    <i name="e_0_energy">   -413.99964589 </i>
   </energy>
  </scstep>
  <scstep>
   <time name="diag">    2.02    2.02</time>
   <time name="diis">    2.31    2.31</time>
   <time name="orth">    0.89    0.89</time>
   <time name="total">    5.26    5.26</time>
   <energy>
    <i name="alphaZ">   6808.08261835 </i>
    <i name="ewald">-127287.79937829 </i>
    <i name="hartreedc"> -50356.99417797 </i>
    <i name="XCdc">   5570.93946054 </i>
    <i name="pawpsdc"> 164429.90693964 </i>
    <i name="pawaedc">-177924.12789630 </i>
    <i name="eentropy">     -0.33518711 </i>
    <i name="bandstr">   4476.45537179 </i>
    <i name="atom"> 173869.70502497 </i>
    <i name="e_fr_energy">   -414.16722438 </i>
    <i name="e_wo_entrp">   -413.83203727 </i>
    <i name="e_0_energy">   -413.99963083 </i>
   </energy>
  </scstep>
  <structure>
   <crystal>
    <varray name="basis" >
     <v>      11.88417789       0.00000000       0.00000000 </v>
     <v>       0.00000000      11.88417789       0.00000000 </v>
     <v>       0.00000000       0.00000000      11.88417789 </v>
    </varray>
    <i name="volume">   1678.44622616 </i>
    <varray name="rec_basis" >
     <v>       0.08414549      -0.00000000       0.00000000 </v>
     <v>       0.00000000       0.08414549       0.00000000 </v>
     <v>      -0.00000000      -0.00000000       0.08414549 </v>
    </varray>
   </crystal>
   <varray name="positions" >
    <v>       0.64206804       0.03995486       0.04100646 </v>
    <v>       0.09278303       0.13419658       0.42175838 </v>
    <v>       0.78523330       0.34656406       0.58589807 </v>
    <v>       0.96279341       0.13707734       0.83443568 </v>
    <v>       0.93295182       0.06223294       0.02738119 </v>
    <v>       0.90492799       0.26388277       0.02525686 </v>
    <v>       0.02580215       0.17092789       0.19863044 </v>
    <v>       0.94654075       0.23941349       0.49404821 </v>
    <v>       0.23508736       0.22690589       0.28299791 </v>
    <v>       0.98506468       0.32821845       0.65435219 </v>
    <v>       0.87422857       0.45683836       0.93733358 </v>
    <v>       0.97816326       0.52962625       0.28421587 </v>
    <v>       0.13121502       0.57658135       0.36867058 </v>
    <v>       0.98887872       0.51948746       0.78395200 </v>
    <v>       0.15848280       0.63914336       0.66626494 </v>
    <v>       0.84982333       0.70024949       0.89760923 </v>
    <v>       0.86361852       0.74474903       0.09265761 </v>
    <v>       0.28741044       0.67482153       0.23764239 </v>
    <v>       0.53155306       0.49693344       0.38867852 </v>
    <v>       0.07976673       0.75064296       0.52043938 </v>
    <v>       0.27056297       0.99972384       0.25212044 </v>
    <v>       0.09793376       0.98709669       0.29997662 </v>
    <v>       0.00694155       0.02432320       0.59429760 </v>
    <v>       0.96916447       0.73323072       0.67897710 </v>
    <v>       0.97551924       0.87884660       0.95959071 </v>
    <v>       0.17234832       0.89328296       0.93479802 </v>
    <v>       0.08790637       0.00590897       0.11709836 </v>
    <v>       0.13589539       0.22881700       0.59666618 </v>
    <v>       0.95454585       0.94558022       0.76437207 </v>
    <v>       0.14286420       0.84437462       0.67857739 </v>
    <v>       0.08851591       0.17114721       0.99187573 </v>
    <v>       0.24133350       0.95818754       0.50486035 </v>
    <v>       0.84705917       0.18138337       0.67200912 </v>
    <v>       0.26448091       0.15217815       0.48563724 </v>
    <v>       0.31921692       0.38163425       0.38427093 </v>
    <v>       0.14052283       0.33739868       0.11468398 </v>
    <v>       0.25123849       0.13196463       0.11039766 </v>
    <v>       0.46530463       0.21480490       0.22464678 </v>
    <v>       0.33579329       0.57793684       0.40432650 </v>
    <v>       0.20424239       0.39957835       0.73286975 </v>
    <v>       0.07706463       0.75711022       0.09710832 </v>
    <v>       0.32464088       0.49633861       0.18742180 </v>
    <v>       0.10830944       0.53376772       0.13860037 </v>
    <v>       0.44044872       0.32740849       0.60604369 </v>
    <v>       0.99326540       0.59975585       0.00311153 </v>
    <v>       0.07516741       0.74240222       0.84049061 </v>
    <v>       0.38845469       0.84186420       0.30347047 </v>
    <v>       0.28200161       0.72640329       0.51334847 </v>
    <v>       0.25881713       0.74183135       0.83068068 </v>
    <v>       0.51558473       0.65402902       0.84726473 </v>
    <v>       0.42874912       0.82252485       0.94915828 </v>
    <v>       0.49899477       0.87631728       0.15470560 </v>
    <v>       0.34544537       0.92068163       0.78384118 </v>
    <v>       0.41614292       0.52194570       0.56860932 </v>
    <v>       0.45245530       0.05624038       0.58049545 </v>
    <v>       0.46230206       0.06337517       0.07683561 </v>
    <v>       0.27040910       0.37477059       0.92757150 </v>
    <v>       0.59445313       0.26158206       0.11108915 </v>
    <v>       0.13042165       0.00572126       0.75100091 </v>
    <v>       0.28209455       0.10754685       0.94243713 </v>
    <v>       0.16182735       0.21330788       0.79995564 </v>
    <v>       0.15136678       0.53870983       0.86702249 </v>
    <v>       0.60650591       0.06736127       0.26902878 </v>
    <v>       0.29700241       0.12896412       0.68997572 </v>
    <v>       0.40822285       0.44526930       0.76150401 </v>
    <v>       0.02776928       0.33762997       0.91352466 </v>
    <v>       0.23380753       0.66528815       0.03350567 </v>
    <v>       0.14606042       0.44654975       0.54915571 </v>
    <v>       0.68141392       0.71394334       0.79990469 </v>
    <v>       0.33295140       0.56677941       0.90766784 </v>
    <v>       0.42582638       0.06001482       0.34852276 </v>
    <v>       0.75004549       0.20179938       0.97778984 </v>
    <v>       0.38175484       0.65631501       0.69205330 </v>
    <v>       0.47881008       0.71053015       0.50504199 </v>
    <v>       0.49168157       0.79873699       0.70699441 </v>
    <v>       0.72224482       0.93507631       0.18423182 </v>
    <v>       0.90468723       0.08207892       0.35016994 </v>
    <v>       0.45699892       0.90379992       0.48903426 </v>
    <v>       0.57882053       0.85173420       0.35396262 </v>
    <v>       0.61646046       0.01805679       0.70337823 </v>
    <v>       0.37862445       0.24705814       0.03666900 </v>
    <v>       0.75478673       0.36329560       0.09012863 </v>
    <v>       0.60773643       0.01579746       0.49188182 </v>
    <v>       0.47062929       0.23409727       0.41827778 </v>
    <v>       0.40046674       0.26208731       0.78442344 </v>
    <v>       0.53124219       0.09565542       0.86279321 </v>
    <v>       0.51817500       0.42011203       0.20505323 </v>
    <v>       0.78378467       0.20859992       0.21957685 </v>
    <v>       0.62811751       0.30880739       0.34131842 </v>
    <v>       0.58902861       0.40906532       0.71892010 </v>
    <v>       0.67652840       0.74398169       0.17118908 </v>
    <v>       0.27999747       0.84387033       0.11932978 </v>
    <v>       0.77491762       0.56009005       0.22693928 </v>
    <v>       0.80612242       0.62214636       0.58700492 </v>
    <v>       0.51356304       0.50547526       0.01084536 </v>
    <v>       0.45663919       0.68155993       0.09735264 </v>
    <v>       0.81989536       0.78456784       0.29633619 </v>
    <v>       0.54258236       0.63212108       0.25521702 </v>
    <v>       0.61466085       0.59736030       0.64190362 </v>
    <v>       0.78807207       0.94108200       0.96417054 </v>
    <v>       0.60246874       0.88087291       0.83624509 </v>
    <v>       0.06845177       0.78222259       0.29682381 </v>
    <v>       0.75921188       0.97829073       0.36499197 </v>
    <v>       0.77863204       0.99825291       0.58581023 </v>
    <v>       0.73075354       0.47831908       0.42660916 </v>
    <v>       0.61555726       0.18432681       0.63690621 </v>
    <v>       0.97258653       0.90371410       0.42718869 </v>
    <v>       0.73915773       0.17933862       0.45469094 </v>
    <v>       0.98653272       0.56204013       0.58679344 </v>
    <v>       0.76163028       0.34853955       0.80726616 </v>
    <v>       0.56841913       0.31881375       0.90983918 </v>
    <v>       0.04876246       0.32864970       0.34926350 </v>
    <v>       0.82734438       0.31341958       0.36215225 </v>
    <v>       0.61659765       0.37272506       0.52728737 </v>
    <v>       0.78093709       0.54504031       0.77210696 </v>
    <v>       0.70743223       0.59088606       0.99023834 </v>
    <v>       0.92372873       0.37073223       0.18109558 </v>
    <v>       0.67432540       0.66078248       0.42679834 </v>
    <v>       0.90759845       0.63005678       0.41946065 </v>
    <v>       0.63002813       0.76007921       0.98558807 </v>
    <v>       0.94843955       0.89420874       0.17373524 </v>
    <v>       0.83943393       0.79879383       0.50214626 </v>
    <v>       0.63529139       0.82414061       0.55864591 </v>
    <v>       0.77391122       0.85533547       0.70339053 </v>
    <v>       0.73993346       0.10417954       0.81460401 </v>
   </varray>
  </structure>
  <varray name="forces" >
   <v>       0.28442290       0.40813847      -0.46385521 </v>
   <v>      -0.78164024      -0.19795386      -0.51475582 </v>
   <v>       1.70637210       0.52769361       0.70716912 </v>
   <v>      -0.24228600       0.39594161      -0.14828479 </v>
   <v>      -1.99283300       0.35386345       0.18145395 </v>
   <v>       2.19560973      -0.54645344       0.96256661 </v>
   <v>      -0.25452343       0.92025519       0.52970267 </v>
   <v>      -0.46288511      -0.84249143       0.25089938 </v>
   <v>      -0.07316703      -0.09806340       0.48479322 </v>
   <v>      -0.02786915       1.96578944       2.02666574 </v>
   <v>      -1.03332053       0.20205212       0.71551469 </v>
   <v>      -1.44229972      -1.20396977      -1.48261492 </v>
   <v>       1.60100151       0.66239324       1.06994815 </v>
   <v>      -1.12733800       0.05233575      -0.69756572 </v>
   <v>       0.73745809      -1.06397137       0.61770942 </v>
   <v>       1.06913916       0.60733583      -0.65451220 </v>
   <v>      -0.51288963      -1.03473973      -0.35984213 </v>
   <v>      -0.84949608       0.90301462       0.05673878 </v>
   <v>      -0.67341962      -0.39057750       1.04838622 </v>
   <v>      -0.34755622      -0.16546135      -2.22527330 </v>
   <v>       1.37447270      -0.05907576      -0.40945631 </v>
   <v>      -1.47542367      -0.55533377       1.36249923 </v>
   <v>      -0.01092276       0.74224231      -1.05708143 </v>
   <v>      -1.92554272       0.53103263       0.56319620 </v>
   <v>      -0.04150827      -0.69078911       0.09847275 </v>
   <v>       0.91512840       0.74089695       0.36525736 </v>
   <v>       2.53891313      -1.01199785      -1.97178467 </v>
   <v>      -0.11402303       0.25146218       0.51311644 </v>
   <v>      -1.82108586      -1.21633903       0.52649767 </v>
   <v>       1.09031570      -1.18712205      -0.96256728 </v>
   <v>       1.08322696      -0.04263056       0.00987260 </v>
   <v>      -0.32601728      -0.66339684       0.13526584 </v>
   <v>       0.15723543      -0.55475528      -0.45943091 </v>
   <v>       3.24235736       0.44157523      -0.68413358 </v>
   <v>       0.13825319      -0.17316463       0.28237913 </v>
   <v>       0.26786692      -0.37005837       0.03076869 </v>
   <v>      -1.02976463       0.10620121       3.22726150 </v>
   <v>      -2.40113080      -0.26933197       0.87177589 </v>
   <v>       0.23226021      -0.16194524      -1.23311768 </v>
   <v>      -0.06286667      -0.14389219      -0.28091019 </v>
   <v>       0.03988359       0.44275638      -0.03885370 </v>
   <v>       0.05336208      -1.00725000      -0.44980940 </v>
   <v>       1.25454012       0.01248407       0.70157655 </v>
   <v>      -0.81810049      -1.24793110      -1.20314115 </v>
   <v>      -0.20225017       0.34870788      -0.76277526 </v>
   <v>      -1.89545595      -0.76215846       1.21656307 </v>
   <v>      -1.32388823      -0.65462690       1.05880676 </v>
   <v>      -0.67538512       1.08016260       0.43653794 </v>
   <v>       1.84608344      -0.12557213      -0.01890105 </v>
   <v>      -1.59839074      -1.16183044       0.94241064 </v>
   <v>      -0.49410680       0.28923207       0.03137747 </v>
   <v>       1.09201900       0.37869505      -1.05783577 </v>
   <v>      -0.33437423       1.01007373      -0.11582682 </v>
   <v>       0.55478869      -1.23470258      -0.35321331 </v>
   <v>      -2.04102493       2.88985136       1.89884941 </v>
   <v>      -1.84998848       0.01489505       0.17870274 </v>
   <v>      -0.36190804      -0.28771173       0.04091654 </v>
   <v>       1.01903212      -0.65125791      -1.55372878 </v>
   <v>       1.80599273       3.17878630       1.59310346 </v>
   <v>       0.62632268      -1.32682245      -4.58511987 </v>
   <v>      -0.38873082       0.25342733       0.80532066 </v>
   <v>       0.18697280       0.41990365       1.13246770 </v>
   <v>      -0.01097048       0.93605918      -0.18165419 </v>
   <v>       0.03966831      -1.18408201      -0.42746729 </v>
   <v>      -0.76817270       2.16775145       0.98185377 </v>
   <v>       2.02235641       1.59377274      -1.99815231 </v>
   <v>       0.00986497      -0.01820265       0.02253792 </v>
   <v>       0.15900591      -0.37402149      -0.96260116 </v>
   <v>       1.28707658      -0.59276726      -1.25719365 </v>
   <v>       2.12466537      -0.17389349      -0.27058289 </v>
   <v>      -0.29274907      -1.02806093       0.89347646 </v>
   <v>      -2.84910974      -1.19345115      -0.65815362 </v>
   <v>      -1.68545514      -0.91356010       0.57123388 </v>
   <v>       0.43427553      -1.04286415      -0.60284767 </v>
   <v>       0.69201100       1.41402367      -1.00532043 </v>
   <v>       0.79236146      -0.64485311      -1.15887283 </v>
   <v>       1.54021222       1.66156793      -0.30708986 </v>
   <v>      -2.46336345      -2.07379140      -0.12713860 </v>
   <v>       1.73121993      -0.53543922      -1.02315135 </v>
   <v>      -0.97794310      -2.82480091      -0.79307419 </v>
   <v>       1.90390383       1.59369125      -0.25470724 </v>
   <v>      -1.19937735       2.42917560      -0.14439280 </v>
   <v>       1.41373539       1.12965762      -1.32719858 </v>
   <v>      -0.61262961       0.26711408       1.75898306 </v>
   <v>       0.12875154      -1.50044458       1.73642303 </v>
   <v>      -0.66206512       0.38662396       0.60066184 </v>
   <v>      -0.25783656       0.41740498      -0.45720058 </v>
   <v>      -0.44789037      -1.86747384      -1.60002621 </v>
   <v>       0.47715697       0.06654946      -1.67271462 </v>
   <v>       1.06368061      -0.12176138       0.45786877 </v>
   <v>      -0.57859737      -0.61529619       0.14530240 </v>
   <v>       0.24366883       0.46246799      -0.36966165 </v>
   <v>      -0.05927456       0.06355400       0.00221577 </v>
   <v>      -1.21006167      -0.01579151       0.63241584 </v>
   <v>      -0.10920652      -0.50363605       0.01439928 </v>
   <v>      -0.98229859       0.07732188      -1.14322054 </v>
   <v>       0.53753562      -0.21620827       0.73498495 </v>
   <v>      -0.10560838       0.04184753       1.01941606 </v>
   <v>      -0.85067500       0.28047539      -0.40714936 </v>
   <v>      -0.45792935      -0.87729720      -0.72680780 </v>
   <v>      -0.09242624       2.02290261       1.55990528 </v>
   <v>       0.29726664      -1.08091835       0.54391974 </v>
   <v>      -0.72096899      -1.43764944       1.50782540 </v>
   <v>       1.47074661       1.16321127      -1.04645907 </v>
   <v>       1.72573237       0.63421845      -0.70638616 </v>
   <v>       0.04587949       2.61089283      -0.58906938 </v>
   <v>       0.31146042       0.73936489      -0.21248078 </v>
   <v>      -0.64251513      -1.51088952       0.95248689 </v>
   <v>       0.79905172      -1.41556206      -0.45490042 </v>
   <v>       0.24049687      -1.30345932      -0.04784761 </v>
   <v>      -0.01296153      -0.13094993       0.09802473 </v>
   <v>       0.61018847       0.61560701      -0.41873228 </v>
   <v>       1.55528542       2.57924813       0.01330536 </v>
   <v>      -2.52180911      -0.53156322       0.05045179 </v>
   <v>      -0.16523707      -0.50072373      -0.17954120 </v>
   <v>       0.48114276      -1.71418192       0.40743886 </v>
   <v>       1.09016772       0.61618601       0.96329715 </v>
   <v>      -0.05602689       1.12007223      -0.39245874 </v>
   <v>      -0.24955700       0.92445957      -0.30226553 </v>
   <v>      -0.54894056       1.45993537       0.76311161 </v>
   <v>      -1.20847923       0.79906572       1.06864039 </v>
   <v>      -1.05658262       0.17328455       0.92748914 </v>
   <v>       0.65676677      -0.20645887       0.24842542 </v>
   <v>       0.69059428      -0.78052364       1.16755772 </v>
   <v>       0.60684285      -0.48201106       0.54789023 </v>
  </varray>
  <varray name="stress" >
   <v>      55.97782335       6.76097618      -1.64306436 </v>
   <v>       6.76097633      32.79589058       8.74007464 </v>
   <v>      -1.64306444       8.74007451      46.16655323 </v>
  </varray>
  <energy>
   <i name="e_fr_energy">   -414.16722438 </i>
   <i name="e_wo_entrp">   -413.99963083 </i>
   <i name="e_0_energy">     -0.33518711 </i>
   <i name="kinetic">     22.43967236 </i>
   <i name="lattice kinetic">      0.00000000 </i>
   <i name="nosepot">      0.00000000 </i>
   <i name="nosekinetic">      0.00000000 </i>
   <i name="total">   -391.72755202 </i>
  </energy>
  <time name="totalsc">  174.81  175.06</time>
 </calculation>
 <calculation>
  <scstep>
   <time name="diag">    2.02    2.02</time>
   <time name="diis">    4.10    4.11</time>
   <time name="orth">    0.88    0.88</time>
   <time name="total">    7.23    7.24</time>
   <energy>
    <i name="alphaZ">   6808.08261835 </i>
    <i name="ewald">-127234.76352111 </i>
    <i name="hartreedc"> -50411.68710709 </i>
    <i name="XCdc">   5571.10899511 </i>
    <i name="pawpsdc"> 164428.95462530 </i>
    <i name="pawaedc">-177923.15021713 </i>
    <i name="eentropy">     -0.33619125 </i>
    <i name="bandstr">   4482.63469938 </i>
    <i name="atom"> 173869.70502497 </i>
    <i name="e_fr_energy">   -409.45107347 </i>
    <i name="e_wo_entrp">   -409.11488222 </i>
    <i name="e_0_energy">   -409.28297785 </i>
   </energy>
  </scstep>
  <scstep>
   <time name="diag">    2.02    2.02</time>
   <time name="diis">    4.06    4.06</time>
   <time name="orth">    0.89    0.89</time>
   <time name="total">    7.19    7.19</time>
   <energy>
    <i name="e_fr_energy">   -417.89434434 </i>
    <i name="e_wo_entrp">   -417.57200886 </i>
    <i name="e_0_energy">   -417.73317660 </i>
   </energy>
  </scstep>
  <scstep>
   <time name="diag">    2.01    2.01</time>
   <time name="diis">    4.06    4.07</time>
   <time name="orth">    0.88    0.88</time>
   <time name="total">    7.18    7.18</time>
   <energy>
    <i name="e_fr_energy">   -414.52825967 </i>
    <i name="e_wo_entrp">   -414.20103063 </i>
    <i name="e_0_energy">   -414.36464515 </i>
   </energy>
  </scstep>
  <scstep>
   <time name="diag">    2.03    2.03</time>
   <time name="diis">    4.08    4.09</time>
   <time name="orth">    0.88    0.88</time>
   <time name="total">    7.21    7.22</time>
   <energy>
    <i name="e_fr_energy">   -414.35105419 </i>
    <i name="e_wo_entrp">   -414.01894897 </i>
    <i name="e_0_energy">   -414.18500158 </i>
   </energy>
  </scstep>
  <scstep>
   <time name="diag">    2.01    2.02</time>
   <time name="diis">    4.07    4.07</time>
   <time name="orth">    0.88    0.88</time>
   <time name="total">    7.20    7.21</time>
[...]
    <i name="ewald">-128791.98646298 </i>
    <i name="hartreedc"> -48926.42480298 </i>
    <i name="XCdc">   5566.94179962 </i>
    <i name="pawpsdc"> 163452.42903320 </i>
    <i name="pawaedc">-176926.88327967 </i>
    <i name="eentropy">     -0.33625083 </i>
    <i name="bandstr">   4524.39304705 </i>
    <i name="atom"> 173869.70502497 </i>
    <i name="e_fr_energy">   -424.07927328 </i>
    <i name="e_wo_entrp">   -423.74302245 </i>
    <i name="e_0_energy">   -423.91114786 </i>
   </energy>
  </scstep>
  <scstep>
   <time name="diag">    2.01    2.01</time>
   <time name="diis">    5.40    5.40</time>
   <time name="orth">    0.88    0.88</time>
   <time name="total">    8.52    8.52</time>
   <energy>
    <i name="e_fr_energy">   -424.09229287 </i>
    <i name="e_wo_entrp">   -423.75606960 </i>
    <i name="e_0_energy">   -423.92418123 </i>
   </energy>
  </scstep>
  <scstep>
   <time name="diag">    2.02    2.02</time>
   <time name="diis">    4.21    4.21</time>
   <time name="orth">    0.89    0.89</time>
   <time name="total">    7.35    7.35</time>
   <energy>
    <i name="e_fr_energy">   -424.09249832 </i>
    <i name="e_wo_entrp">   -423.75617307 </i>
    <i name="e_0_energy">   -423.92433569 </i>
   </energy>
  </scstep>
  <scstep>
   <time name="diag">    2.01    2.01</time>
   <time name="diis">    4.09    4.09</time>
   <time name="orth">    0.88    0.88</time>
   <time name="total">    7.21    7.21</time>
   <energy>
    <i name="e_fr_energy">   -424.09248484 </i>
    <i name="e_wo_entrp">   -423.75623957 </i>
    <i name="e_0_energy">   -423.92436221 </i>
   </energy>
  </scstep>
  <scstep>
   <time name="diag">    2.02    2.02</time>
   <time name="diis">    2.46    2.46</time>
   <time name="orth">    0.88    0.88</time>
   <time name="total">    5.59    5.59</time>
   <energy>
    <i name="e_fr_energy">   -424.09249636 </i>
    <i name="e_wo_entrp">   -423.75622720 </i>
    <i name="e_0_energy">   -423.92436178 </i>
   </energy>
  </scstep>
  <scstep>
   <time name="diag">    2.01    2.01</time>
   <time name="diis">    2.45    2.45</time>
   <time name="orth">    0.89    0.89</time>
   <time name="total">    5.38    5.39</time>
   <energy>
    <i name="alphaZ">   6808.08261835 </i>
    <i name="ewald">-128791.98646298 </i>
    <i name="hartreedc"> -48926.75786474 </i>
    <i name="XCdc">   5566.96134787 </i>
    <i name="pawpsdc"> 163455.97063279 </i>
    <i name="pawaedc">-176930.49984465 </i>
    <i name="eentropy">     -0.33625051 </i>
    <i name="bandstr">   4524.76830102 </i>
    <i name="atom"> 173869.70502497 </i>
    <i name="e_fr_energy">   -424.09249789 </i>
    <i name="e_wo_entrp">   -423.75624738 </i>
    <i name="e_0_energy">   -423.92437263 </i>
   </energy>
  </scstep>
  <structure>
   <crystal>
    <varray name="basis" >
     <v>      11.88417789       0.00000000       0.00000000 </v>
     <v>       0.00000000      11.88417789       0.00000000 </v>
     <v>       0.00000000       0.00000000      11.88417789 </v>
    </varray>
    <i name="volume">   1678.44622616 </i>
    <varray name="rec_basis" >
     <v>       0.08414549      -0.00000000       0.00000000 </v>
     <v>       0.00000000       0.08414549       0.00000000 </v>
     <v>      -0.00000000      -0.00000000       0.08414549 </v>
    </varray>
   </crystal>
   <varray name="positions" >
    <v>       0.57471255       0.04422983       0.00539666 </v>
    <v>       0.10917723       0.17778131       0.41133854 </v>
    <v>       0.81279741       0.38611806       0.61112873 </v>
    <v>       0.93714719       0.10910702       0.86580684 </v>
    <v>       0.96662929       0.05894506       0.09165700 </v>
    <v>       0.96941704       0.25359236       0.00791351 </v>
    <v>       0.00541916       0.26038706       0.21620144 </v>
    <v>       0.94126417       0.24845597       0.51524568 </v>
    <v>       0.20239173       0.30511958       0.27649394 </v>
    <v>       0.97741866       0.34302492       0.74004403 </v>
    <v>       0.85515539       0.45936457       0.96288805 </v>
    <v>       0.94804409       0.56498409       0.27240209 </v>
    <v>       0.11381015       0.57742844       0.36517608 </v>
    <v>       0.97295253       0.53614329       0.81418297 </v>
    <v>       0.12406136       0.64606032       0.65201755 </v>
    <v>       0.86609281       0.70376064       0.86905106 </v>
    <v>       0.82833213       0.70180931       0.06662640 </v>
    <v>       0.26665380       0.67813917       0.22714272 </v>
    <v>       0.50897846       0.41950187       0.35259965 </v>
    <v>       0.07953785       0.78900643       0.53801915 </v>
    <v>       0.26463917       0.01341431       0.25865942 </v>
    <v>       0.07737456       0.98417255       0.28869056 </v>
    <v>       0.09723031       0.00375002       0.55331611 </v>
    <v>       0.94438500       0.72774673       0.67547457 </v>
    <v>       0.99723754       0.94093889       0.91415802 </v>
    <v>       0.21409504       0.90943616       0.89239477 </v>
    <v>       0.14864916       0.97041191       0.08135624 </v>
    <v>       0.11679263       0.28971944       0.60318281 </v>
    <v>       0.92767427       0.94384255       0.68894226 </v>
    <v>       0.18742895       0.84759416       0.68326493 </v>
    <v>       0.12023156       0.13337639       0.96488361 </v>
    <v>       0.22617917       0.92910936       0.42838826 </v>
    <v>       0.88381441       0.14659164       0.67307447 </v>
    <v>       0.28311702       0.13175757       0.49014582 </v>
    <v>       0.36399881       0.31578537       0.43235500 </v>
    <v>       0.15230873       0.34005243       0.08880600 </v>
    <v>       0.24962025       0.16077223       0.11219149 </v>
    <v>       0.41298901       0.20750936       0.25317430 </v>
    <v>       0.32703374       0.55433255       0.37567547 </v>
    <v>       0.19746297       0.46857772       0.75952261 </v>
    <v>       0.01425482       0.80529335       0.06028855 </v>
    <v>       0.34609125       0.42101006       0.20570833 </v>
    <v>       0.17452050       0.51843448       0.16337172 </v>
    <v>       0.28860740       0.28998393       0.64514203 </v>
    <v>       0.01780934       0.56696460       0.07533947 </v>
    <v>       0.07921426       0.77749942       0.84989342 </v>
    <v>       0.36704299       0.82255074       0.33967972 </v>
    <v>       0.26760333       0.71794011       0.50852233 </v>
    <v>       0.30010338       0.71093921       0.83315399 </v>
    <v>       0.47536565       0.63645896       0.89408245 </v>
    <v>       0.42651797       0.89724940       0.94616972 </v>
    <v>       0.50712676       0.89575130       0.16917696 </v>
    <v>       0.37178584       0.95308985       0.77332693 </v>
    <v>       0.40346043       0.46296065       0.56622735 </v>
    <v>       0.44639560       0.10919411       0.58436751 </v>
    <v>       0.37655021       0.03281310       0.08655314 </v>
    <v>       0.29001684       0.38065479       0.94888469 </v>
    <v>       0.60629253       0.21374867       0.13702412 </v>
    <v>       0.09409761       0.04896654       0.78044439 </v>
    <v>       0.32575220       0.13082543       0.90795451 </v>
    <v>       0.16950884       0.26463572       0.81716527 </v>
    <v>       0.14909910       0.59689453       0.87031473 </v>
    <v>       0.60565549       0.06222124       0.25629805 </v>
    <v>       0.25204459       0.09888017       0.68795319 </v>
    <v>       0.40764644       0.48064895       0.79781955 </v>
    <v>       0.07252047       0.41986191       0.93005115 </v>
    <v>       0.19879598       0.71561818       0.02881286 </v>
    <v>       0.20982827       0.52298904       0.53460814 </v>
    <v>       0.68874516       0.69556605       0.75615023 </v>
    <v>       0.32658168       0.54982276       0.00353696 </v>
    <v>       0.44089446       0.00477021       0.40167181 </v>
    <v>       0.78191741       0.11575317       0.02024704 </v>
    <v>       0.34184515       0.63313428       0.66433356 </v>
    <v>       0.46239350       0.66266795       0.48425965 </v>
    <v>       0.47340504       0.76091723       0.74345074 </v>
    <v>       0.72387513       0.97136360       0.14268927 </v>
    <v>       0.93056557       0.09726215       0.30994083 </v>
    <v>       0.35855763       0.90563404       0.57381630 </v>
    <v>       0.57386203       0.87093530       0.34647096 </v>
    <v>       0.62662518       0.97973440       0.65972085 </v>
    <v>       0.41901896       0.25484351       0.04346374 </v>
    <v>       0.73260617       0.35081992       0.06423206 </v>
    <v>       0.63494602       0.02623406       0.47461687 </v>
    <v>       0.52530011       0.21068680       0.40689592 </v>
    <v>       0.42036041       0.27389973       0.79655977 </v>
    <v>       0.51262756       0.07966480       0.81273122 </v>
    <v>       0.57379750       0.45707240       0.15909819 </v>
    <v>       0.81090961       0.19719525       0.20824218 </v>
    <v>       0.68681868       0.35228844       0.28064562 </v>
    <v>       0.61028919       0.39775235       0.73668349 </v>
    <v>       0.62888771       0.73467008       0.18613490 </v>
    <v>       0.31651182       0.84186988       0.13558977 </v>
    <v>       0.75370137       0.54019538       0.23999483 </v>
    <v>       0.75821588       0.59606500       0.59855613 </v>
    <v>       0.53961473       0.43083303       0.95195437 </v>
    <v>       0.48237053       0.66509919       0.07319260 </v>
    <v>       0.82619798       0.75209264       0.29511715 </v>
    <v>       0.46309027       0.64065037       0.26869805 </v>
    <v>       0.54799098       0.56899458       0.66079446 </v>
    <v>       0.79924195       0.91892427       0.97485549 </v>
    <v>       0.59276472       0.89042523       0.83921419 </v>
    <v>       0.04275164       0.74340521       0.25183306 </v>
    <v>       0.77459439       0.98106765       0.34933041 </v>
    <v>       0.86212685       0.05295832       0.50895826 </v>
    <v>       0.75886348       0.48557577       0.42606871 </v>
    <v>       0.65451605       0.20585936       0.68741668 </v>
    <v>       0.94599620       0.87498910       0.42140996 </v>
    <v>       0.74835645       0.22061786       0.43871293 </v>
    <v>       0.94209793       0.46288206       0.49658360 </v>
    <v>       0.78790371       0.29115360       0.82020371 </v>
    <v>       0.58395164       0.22562580       0.89425562 </v>
    <v>       0.08506127       0.36852364       0.40747967 </v>
    <v>       0.88451184       0.35707753       0.33129012 </v>
    <v>       0.62784215       0.36498511       0.52408714 </v>
    <v>       0.79618589       0.48582546       0.77605978 </v>
    <v>       0.70803152       0.57238879       0.92990540 </v>
    <v>       0.90841631       0.41843375       0.13705171 </v>
    <v>       0.63094082       0.67524013       0.38311029 </v>
    <v>       0.92303761       0.66114516       0.48721074 </v>
    <v>       0.64238788       0.77283322       0.99781246 </v>
    <v>       0.90989333       0.88724147       0.19939564 </v>
    <v>       0.80864443       0.85959586       0.57189568 </v>
    <v>       0.60757630       0.80531524       0.56557124 </v>
    <v>       0.78080902       0.87228880       0.77868046 </v>
    <v>       0.72500984       0.09120397       0.82479446 </v>
   </varray>
  </structure>
  <varray name="forces" >
   <v>       0.17299025      -0.32685362       0.44717370 </v>
   <v>      -0.38678445      -1.24980610      -0.41720402 </v>
   <v>      -0.91234027      -1.22996618       0.26634757 </v>
   <v>      -2.05913365       1.71278825       0.17733512 </v>
   <v>      -0.36980091       0.10233845       0.40836340 </v>
   <v>      -0.94169931       0.74409182       0.15095128 </v>
   <v>       1.42447877      -0.72954420      -0.20377393 </v>
   <v>      -0.08708931       0.28727888      -0.66121861 </v>
   <v>       1.09929915      -0.90379320      -0.22740969 </v>
   <v>      -0.02737118      -0.14549289       0.15688517 </v>
   <v>       1.39513000      -0.11978720      -1.01500509 </v>
   <v>      -0.62101546      -0.07900611       0.31656626 </v>
   <v>       0.81144143       0.42297424       0.48283988 </v>
   <v>       0.62144624       1.21503367      -0.95276655 </v>
   <v>       0.10674596      -0.75690109       1.86675016 </v>
   <v>       0.17464058       0.29606031       0.21880726 </v>
   <v>      -0.05899372      -0.11882087       0.93253928 </v>
   <v>      -0.46306933      -0.15905996       0.29007119 </v>
   <v>       0.11705607       0.77733075       0.04504026 </v>
   <v>      -0.55792837       0.81879194      -1.65129786 </v>
   <v>       1.24633268       0.40470357      -0.31066287 </v>
   <v>       0.24274849      -1.01211361      -0.11731214 </v>
   <v>      -0.69705120       0.59633179       0.56596670 </v>
   <v>      -1.01178616       0.25216209       0.93553548 </v>
   <v>       0.02930935      -0.84381634       0.56227085 </v>
   <v>       0.43281653       0.52912063       0.45651704 </v>
   <v>       0.55416361      -0.54833522       0.50440204 </v>
   <v>      -1.79346574      -0.05997716      -0.57565731 </v>
   <v>       2.45566335       1.09925102       0.38191024 </v>
   <v>       0.86571539       0.75669631       0.87875524 </v>
   <v>       0.16481112      -0.25689844      -0.17384201 </v>
   <v>      -0.54772436      -0.41880747       0.29602337 </v>
   <v>      -0.27292304       0.72983497       1.31032183 </v>
   <v>      -0.48429644      -0.19489960      -0.72973186 </v>
   <v>      -1.56053226       0.06413835       0.16517072 </v>
   <v>      -0.21535739      -0.71080140      -0.18750525 </v>
   <v>      -1.22033762       1.48721071       0.90250374 </v>
   <v>      -0.68227327      -0.14444636      -0.92904490 </v>
   <v>      -0.31513826      -1.06782922       0.23666173 </v>
   <v>       0.69775082      -2.33276667      -2.20057454 </v>
   <v>       0.22010737      -0.64571406      -0.95568812 </v>
   <v>       0.96546326       0.08062099      -0.45550449 </v>
   <v>       0.46715544      -0.03610236       0.83827510 </v>
   <v>       2.68737552       0.80950859      -0.19379424 </v>
   <v>      -0.83759540       1.58454399      -1.34063692 </v>
   <v>      -0.78835227      -0.90856660      -0.65172186 </v>
   <v>       0.37687781      -0.59958399       0.08043124 </v>
   <v>      -0.40780176       0.85521536      -1.13275134 </v>
   <v>      -0.45215119       1.42458020       0.97502548 </v>
   <v>       1.42229536      -0.22947170      -1.28176997 </v>
   <v>      -0.03400760      -0.94548088       1.28756395 </v>
   <v>      -0.06813325       0.21487008      -1.10277630 </v>
   <v>      -0.51986703      -0.26957348      -1.31316559 </v>
   <v>       0.29623137      -0.43783682       0.03613449 </v>
   <v>       1.35403286       0.01339594       1.20451068 </v>
   <v>       1.42032442      -0.60788521      -0.16075847 </v>
   <v>      -0.23068314      -1.72595018      -1.15449863 </v>
   <v>      -0.41176585       0.45042032      -0.51415212 </v>
   <v>       0.53048052      -0.53783590      -1.11140115 </v>
   <v>      -0.46639228      -0.58406936      -0.43900131 </v>
   <v>       0.06195622      -0.18213737      -0.40610179 </v>
   <v>      -0.47397151       1.14861726       2.11056567 </v>
   <v>      -1.17749780       0.39580445       1.52622098 </v>
   <v>       0.82340753      -0.07787068      -0.03184336 </v>
   <v>      -0.28322905      -0.38172149      -0.56376231 </v>
   <v>       0.03956584      -0.62622266       0.02859280 </v>
   <v>      -0.24177545       0.11306608       0.16025874 </v>
   <v>      -0.13337401      -1.76161830       0.07296600 </v>
   <v>      -0.63638632       0.16960888       0.36804216 </v>
   <v>       0.12460287       1.48079710       0.63462296 </v>
   <v>      -0.60829012       0.87000889      -0.31382507 </v>
   <v>      -0.22354084       1.25892592      -0.36025709 </v>
   <v>       0.13014104      -0.97978997      -0.22680380 </v>
   <v>      -0.05661394       0.23535408       0.49163555 </v>
   <v>       0.56579853       0.91814616      -1.08029741 </v>
   <v>       0.00344316      -0.89704174       0.53268046 </v>
   <v>      -0.03637972       0.00935867       1.22954772 </v>
   <v>       0.57314116      -0.16000776       0.03194562 </v>
   <v>       1.18040283      -0.77694050       0.82805162 </v>
   <v>       0.12943420       0.43915168       0.94139414 </v>
   <v>       0.71969225       0.23518471       0.12974467 </v>
   <v>      -0.81338501      -0.33979127      -0.20027801 </v>
   <v>      -0.34697087       0.80591971      -0.22766250 </v>
   <v>       1.65843262      -0.48635654       0.83291570 </v>
   <v>      -0.07678937       0.30914743       0.01043735 </v>
   <v>      -0.57816713      -0.87806684      -1.33213111 </v>
   <v>      -0.73455356       0.65449250      -0.64279687 </v>
   <v>      -1.18303698       0.55386496      -0.84831544 </v>
   <v>      -0.15864872      -0.87959917       0.46469377 </v>
   <v>      -0.21674334      -0.18600502       0.58360741 </v>
   <v>       1.29131850      -0.25428563       1.03894703 </v>
   <v>       0.04666927       0.64416377      -0.47744909 </v>
   <v>      -0.54434776       0.85830571      -1.05551842 </v>
   <v>       0.01878934      -0.04153465      -0.22176122 </v>
   <v>      -0.07893493      -0.18341461       0.01648804 </v>
   <v>      -0.42748859       0.24972546       1.29780645 </v>
   <v>      -0.95322611      -1.38767624       0.80787472 </v>
   <v>       0.68517942      -0.08047163       0.11990206 </v>
   <v>       0.25048976       0.83680024      -0.16076762 </v>
   <v>       0.46782973      -0.75842908      -0.67565422 </v>
   <v>       0.32826978       0.14720174       0.18058222 </v>
   <v>       0.56746299      -0.04847327       0.27293562 </v>
   <v>      -0.18918687      -1.04693943      -1.00758615 </v>
   <v>       0.17964458      -0.30356872      -0.16340163 </v>
   <v>      -0.52710854       0.47557909       0.32451565 </v>
   <v>      -0.54626089      -0.01773179      -1.37003355 </v>
   <v>       0.06952955       0.32311151      -0.75170634 </v>
   <v>      -0.01941748      -0.40170835      -0.10000942 </v>
   <v>       1.13774408       0.97097880       0.31865858 </v>
   <v>       0.16028745      -0.37897665       0.57428403 </v>
   <v>       1.52862869       2.02857258       1.62422795 </v>
   <v>      -0.10318236       1.13842518       0.38423949 </v>
   <v>      -0.20936824       0.02263754       0.55844983 </v>
   <v>      -0.80050637      -0.05654188       0.24311793 </v>
   <v>      -1.12327299       0.71836526      -0.65099146 </v>
   <v>      -1.77015514       0.89081231       0.64838832 </v>
   <v>       0.16829954      -0.78610106       1.15244718 </v>
   <v>       1.25723035      -0.47326012       0.24204761 </v>
   <v>      -0.04362745       0.39015789      -1.09736365 </v>
   <v>       0.09780469       0.22502135      -0.99642112 </v>
   <v>      -0.13440769       1.70557431      -0.09363291 </v>
   <v>      -1.28047706      -0.96281524      -1.00923409 </v>
   <v>      -0.27392145      -0.83979959      -0.19375000 </v>
   <v>      -0.43757461      -0.20296551       0.30538080 </v>
   <v>       0.63536546      -1.41512160       0.45231323 </v>
  </varray>
  <varray name="stress" >
   <v>      19.45154392      -0.97096227       4.96981822 </v>
   <v>      -0.97096219      -8.40635306      -2.85194047 </v>
   <v>       4.96981849      -2.85194054      18.44936905 </v>
  </varray>
  <energy>
   <i name="e_fr_energy">   -424.09249789 </i>
   <i name="e_wo_entrp">   -423.92437263 </i>
   <i name="e_0_energy">     -0.33625051 </i>
   <i name="kinetic">     19.93271739 </i>
   <i name="lattice kinetic">      0.00000000 </i>
   <i name="nosepot">     12.55823068 </i>
   <i name="nosekinetic">      0.03831973 </i>
   <i name="total">   -391.56323008 </i>
  </energy>
  <time name="totalsc">   51.86   51.91</time>
 </calculation>
 </modeling>
